  MPI-parallelism will be employed.
------------------------------------------------------------
          Invoking FHI-aims ...
          Version 171221_1
          Compiled on 2019/09/09 at 14:39:39 on host puhti-login2.bullx.

          When using FHI-aims, please cite the following reference:

          Volker Blum, Ralf Gehrke, Felix Hanke, Paula Havu,
          Ville Havu, Xinguo Ren, Karsten Reuter, and Matthias Scheffler,
          'Ab Initio Molecular Simulations with Numeric Atom-Centered Orbitals',
          Computer Physics Communications 180, 2175-2196 (2009)

          For any questions about FHI-aims, please visit the aimsclub website
          with its forums and wiki. Contributions to both the forums and the
          wiki are warmly encouraged - they are for you, and everyone is welcome there.

------------------------------------------------------------



  Date     :  20200805, Time     :  182249.041
  Time zero on CPU 1             :   0.113550000000000E-01  s.
  Internal wall clock time zero  :           365883769.041  s.

  FHI-aims created a unique identifier for this run for later identification
  aims_uuid : 4596D923-979D-417A-A159-FEAA126A01C5

  Using        1 parallel tasks.
  Task        0 on host r13c16.bullx reporting.

  Performing system and environment tests:
  | Environment variable OMP_NUM_THREADS correctly set to 1.
  | Stacksize not measured: no C compiler
  | Checking for scalapack...
  | Testing pdtran()...
  | All pdtran() tests passed.

  Obtaining array dimensions for all initial allocations:
  
  -----------------------------------------------------------------------
  Parsing control.in (first pass over file, find array dimensions only).
  The contents of control.in will be repeated verbatim below
  unless switched off by setting 'verbatim_writeout .false.' .
  in the first line of control.in .
  -----------------------------------------------------------------------
  
  #########################################################################################
  #
  #  Volker Blum, FHI 2009 : Test run input file control.in for simple H2O
  #
  #########################################################################################
  #
  #  Physical model
  #
    xc                 pbe
    vdw_correction_hirshfeld
    spin               none
    relativistic       none
    charge             0.
  #
  #  SCF convergence
  #
    occupation_type    gaussian 0.01
    mixer              pulay
      n_max_pulay        10
      charge_mix_param   0.2
    sc_accuracy_rho    1E-5
    sc_accuracy_eev    1E-3
    sc_accuracy_etot   1E-6
    sc_accuracy_forces 1E-4
    sc_iter_limit      100
  #
  #  Relaxation
  #
  #  relax_geometry   bfgs 1.e-3
  #
  ################################################################################
  #
  #  FHI-aims code project
  #  VB, Fritz-Haber Institut, 2009
  #
  #  Suggested "light" defaults for H atom (to be pasted into control.in file)
  #  Be sure to double-check any results obtained with these settings for post-processing,
  #  e.g., with the "tight" defaults and larger basis sets.
  #
  ################################################################################
    species        H
  #     global species definitions
      nucleus             1
      mass                1.00794
  #
      l_hartree           4
  #
      cut_pot             3.5  1.5  1.0
      basis_dep_cutoff    1e-4
  #
      radial_base         24 5.0
      radial_multiplier   1
      angular_grids       specified
        division   0.2421   50
        division   0.3822  110
        division   0.4799  194
        division   0.5341  302
  #      division   0.5626  434
  #      division   0.5922  590
  #      division   0.6542  770
  #      division   0.6868 1202
  #      outer_grid  770
        outer_grid  302
  ################################################################################
  #
  #  Definition of "minimal" basis
  #
  ################################################################################
  #     valence basis states
      valence      1  s   1.
  #     ion occupancy
      ion_occ      1  s   0.5
  ################################################################################
  #
  #  Suggested additional basis functions. For production calculations,
  #  uncomment them one after another (the most important basis functions are
  #  listed first).
  #
  #  Basis constructed for dimers: 0.5 A, 0.7 A, 1.0 A, 1.5 A, 2.5 A
  #
  ################################################################################
  #  "First tier" - improvements: -1014.90 meV to -62.69 meV
       hydro 2 s 2.1
       hydro 2 p 3.5
  #  "Second tier" - improvements: -12.89 meV to -1.83 meV
  #     hydro 1 s 0.85
  #     hydro 2 p 3.7
  #     hydro 2 s 1.2
  #     hydro 3 d 7
  #  "Third tier" - improvements: -0.25 meV to -0.12 meV
  #     hydro 4 f 11.2
  #     hydro 3 p 4.8
  #     hydro 4 d 9
  #     hydro 3 s 3.2
  ################################################################################
  #
  #  FHI-aims code project
  #  VB, Fritz-Haber Institut, 2009
  #
  #  Suggested "light" defaults for C atom (to be pasted into control.in file)
  #  Be sure to double-check any results obtained with these settings for post-processing,
  #  e.g., with the "tight" defaults and larger basis sets.
  #
  ################################################################################
    species        C
  #     global species definitions
      nucleus             6
      mass                12.0107
  #
      l_hartree           4
  #
      cut_pot             3.5  1.5  1.0
      basis_dep_cutoff    1e-4
  #
      radial_base         34 5.0
      radial_multiplier   1
      angular_grids specified
        division   0.3326   50
        division   0.5710  110
        division   0.7727  194
        division   0.8772  302
  #      division   0.9334  434
  #      division   0.9625  590
  #      division   0.9924  770
  #      division   1.0230  974
  #      division   1.4589 1202
  #     outer_grid  974
       outer_grid 302
  ################################################################################
  #
  #  Definition of "minimal" basis
  #
  ################################################################################
  #     valence basis states
      valence      2  s   2.
      valence      2  p   2.
  #     ion occupancy
      ion_occ      2  s   1.
      ion_occ      2  p   1.
  ################################################################################
  #
  #  Suggested additional basis functions. For production calculations,
  #  uncomment them one after another (the most important basis functions are
  #  listed first).
  #
  #  Constructed for dimers: 1.0 A, 1.25 A, 1.5 A, 2.0 A, 3.0 A
  #
  ################################################################################
  #  "First tier" - improvements: -1214.57 meV to -155.61 meV
       hydro 2 p 1.7
       hydro 3 d 6
       hydro 2 s 4.9
  #  "Second tier" - improvements: -67.75 meV to -5.23 meV
  #     hydro 4 f 9.8
  #     hydro 3 p 5.2
  #     hydro 3 s 4.3
  #     hydro 5 g 14.4
  #     hydro 3 d 6.2
  #  "Third tier" - improvements: -2.43 meV to -0.60 meV
  #     hydro 2 p 5.6
  #     hydro 2 s 1.4
  #     hydro 3 d 4.9
  #     hydro 4 f 11.2
  #  "Fourth tier" - improvements: -0.39 meV to -0.18 meV
  #     hydro 2 p 2.1
  #     hydro 5 g 16.4
  #     hydro 4 d 13.2
  #     hydro 3 s 13.6
  #     hydro 4 f 17.6
  #  Further basis functions - improvements: -0.08 meV and below
  #     hydro 3 s 2
  #     hydro 3 p 6
  #     hydro 4 d 20
  ################################################################################
  #
  #  FHI-aims code project
  #  VB, Fritz-Haber Institut, 2009
  #
  #  Suggested "light" defaults for N atom (to be pasted into control.in file)
  #  Be sure to double-check any results obtained with these settings for post-processing,
  #  e.g., with the "tight" defaults and larger basis sets.
  #
  ################################################################################
    species        N
  #     global species definitions
      nucleus             7
      mass                14.0067
  #
      l_hartree           4
  #
      cut_pot             3.5  1.5  1.0
      basis_dep_cutoff    1e-4
  #
      radial_base         35 5.0
      radial_multiplier   1
      angular_grids       specified
        division   0.2599   50
        division   0.4601  110
        division   0.5885  194
        division   0.6503  302
  #      division   0.6939  434
  #      division   0.7396  590
  #      division   0.7632  770
  #      division   0.8122  974
  #      division   1.1604 1202
  #      outer_grid  974
        outer_grid  302
  ################################################################################
  #
  #  Definition of "minimal" basis
  #
  ################################################################################
  #     valence basis states
      valence      2  s   2.
      valence      2  p   3.
  #     ion occupancy
      ion_occ      2  s   1.
      ion_occ      2  p   2.
  ################################################################################
  #
  #  Suggested additional basis functions. For production calculations,
  #  uncomment them one after another (the most important basis functions are
  #  listed first).
  #
  #  Constructed for dimers: 1.0 A, 1.1 A, 1.5 A, 2.0 A, 3.0 A
  #
  ################################################################################
  #  "First tier" - improvements: -1193.42 meV to -220.60 meV
       hydro 2 p 1.8
       hydro 3 d 6.8
       hydro 3 s 5.8
  #  "Second tier" - improvements: -80.21 meV to -6.86 meV
  #     hydro 4 f 10.8
  #     hydro 3 p 5.8
  #     hydro 1 s 0.8
  #     hydro 5 g 16
  #     hydro 3 d 4.9
  #  "Third tier" - improvements: -4.29 meV to -0.53 meV
  #     hydro 3 s 16
  #     ionic 2 p auto
  #     hydro 3 d 6.6
  #     hydro 4 f 11.6
  #  "Fourth tier" - improvements: -0.75 meV to -0.25 meV
  #     hydro 2 p 4.5
  #     hydro 2 s 2.4
  #     hydro 5 g 14.4
  #     hydro 4 d 14.4
  #     hydro 4 f 16.8
  # Further basis functions - -0.21 meV and below
  #     hydro 3 p 14.8
  #     hydro 3 s 4.4
  #     hydro 3 d 19.6
  #     hydro 5 g 12.8
  ################################################################################
  #
  #  FHI-aims code project
  #  VB, Fritz-Haber Institut, 2009
  #
  #  Suggested "light" defaults for O atom (to be pasted into control.in file)
  #  Be sure to double-check any results obtained with these settings for post-processing,
  #  e.g., with the "tight" defaults and larger basis sets.
  #
  ################################################################################
    species        O
  #     global species definitions
      nucleus             8
      mass                15.9994
  #
      l_hartree           4
  #
      cut_pot             3.5  1.5  1.0
      basis_dep_cutoff    1e-4
  #
      radial_base         36 5.0
      radial_multiplier   1
       angular_grids specified
        division   0.2659   50
        division   0.4451  110
        division   0.6052  194
        division   0.7543  302
  #      division   0.8014  434
  #      division   0.8507  590
  #      division   0.8762  770
  #      division   0.9023  974
  #      division   1.2339 1202
  #      outer_grid 974
        outer_grid 302
  ################################################################################
  #
  #  Definition of "minimal" basis
  #
  ################################################################################
  #     valence basis states
      valence      2  s   2.
      valence      2  p   4.
  #     ion occupancy
      ion_occ      2  s   1.
      ion_occ      2  p   3.
  ################################################################################
  #
  #  Suggested additional basis functions. For production calculations,
  #  uncomment them one after another (the most important basis functions are
  #  listed first).
  #
  #  Constructed for dimers: 1.0 A, 1.208 A, 1.5 A, 2.0 A, 3.0 A
  #
  ################################################################################
  #  "First tier" - improvements: -699.05 meV to -159.38 meV
       hydro 2 p 1.8
       hydro 3 d 7.6
       hydro 3 s 6.4
  #  "Second tier" - improvements: -49.91 meV to -5.39 meV
  #     hydro 4 f 11.6
  #     hydro 3 p 6.2
  #     hydro 3 d 5.6
  #     hydro 5 g 17.6
  #     hydro 1 s 0.75
  #  "Third tier" - improvements: -2.83 meV to -0.50 meV
  #     ionic 2 p auto
  #     hydro 4 f 10.8
  #     hydro 4 d 4.7
  #     hydro 2 s 6.8
  #  "Fourth tier" - improvements: -0.40 meV to -0.12 meV
  #     hydro 3 p 5
  #     hydro 3 s 3.3
  #     hydro 5 g 15.6
  #     hydro 4 f 17.6
  #     hydro 4 d 14
  # Further basis functions - -0.08 meV and below
  #     hydro 3 s 2.1
  #     hydro 4 d 11.6
  #     hydro 3 p 16
  #     hydro 2 s 17.2
  
  -----------------------------------------------------------------------
  Completed first pass over input file control.in .
  -----------------------------------------------------------------------
  
  
  -----------------------------------------------------------------------
  Parsing geometry.in (first pass over file, find array dimensions only).
  The contents of geometry.in will be repeated verbatim below
  unless switched off by setting 'verbatim_writeout .false.' .
  in the first line of geometry.in .
  -----------------------------------------------------------------------
  
  atom  0.00000 0.00000 0.00000 C
  atom  1.09300 0.00000 0.00000 H
  atom  -0.47961 0.00000 -1.41207 N
  atom  -0.77311 -0.94620 -1.65782 H
  atom  -1.26444 0.64341 -1.49070 H
  atom  -0.49584 1.26211 0.72868 C
  atom  -1.58789 1.28919 0.74431 H
  atom  -0.13407 1.27425 1.75947 H
  atom  -0.13407 2.16087 0.22380 H
  atom  -0.39425 -1.28861 0.74398 C
  atom  -0.10189 -1.56493 1.88303 O
  atom  -1.10210 -2.13717 0.06896 O
  atom  -1.70007 -1.50737 -0.36779 H
  
  -----------------------------------------------------------------------
  Completed first pass over input file geometry.in .
  -----------------------------------------------------------------------
  

  Basic array size parameters:
  | Number of species                 :        4
  | Number of atoms                   :       13
  | Max. basis fn. angular momentum   :        2
  | Max. atomic/ionic basis occupied n:        2
  | Max. number of basis fn. types    :        2
  | Max. radial fns per species/type  :        3
  | Max. logarithmic grid size        :     1301
  | Max. radial integration grid size :       36
  | Max. angular integration grid size:      302
  | Max. angular grid division number :        8
  | Radial grid for Hartree potential :     1301
  | Number of spin channels           :        1

------------------------------------------------------------
          Reading file control.in.
------------------------------------------------------------
  XC: Using PBE gradient-corrected functionals.
  Spin treatment: No spin polarisation.
  Non-relativistic treatment of kinetic energy.
  Charge =   0.000000E+00: Neutral system requested explicitly.
  Occupation type: Gaussian broadening, width =   0.100000E-01 eV.
  Using pulay charge density mixing.
  Pulay mixing - number of memorized iterations:   10
  Charge density mixing - mixing parameter:     0.2000
  Convergence accuracy of self-consistent charge density:  0.1000E-04
  Convergence accuracy of sum of eigenvalues:  0.1000E-02
  Convergence accuracy of total energy:  0.1000E-05
  Convergence accuracy of forces:  0.1000E-03
  Maximum number of s.-c. iterations  :   100
 
  Reading configuration options for species H                   .
  | Found nuclear charge :   1.0000
  | Found atomic mass :    1.00794000000000      amu
  | Found l_max for Hartree potential  :   4
  | Found cutoff potl. onset [A], width [A], scale factor :    3.50000    1.50000    1.00000
  | Threshold for basis-dependent cutoff potential is   0.100000E-03
  | Found data for basic radial integration grid :    24 points, outermost radius =    5.000 A
  | Found multiplier for basic radial grid :   1
  | Found angular grid specification: user-specified.
  | Specified grid contains     5 separate shells.
  | Check grid settings after all constraints further below.
  | Found free-atom valence shell :  1 s   1.000
  | No ionic wave fns used. Skipping ion_occ.
  | Found hydrogenic basis function :  2 s   2.100
  | Found hydrogenic basis function :  2 p   3.500
  Species H                   : Missing cutoff potential type.
  Defaulting to exp(1/x)/(1-x)^2 type cutoff potential.
  Species H : No 'logarithmic' tag. Using default grid for free atom:
  | Default logarithmic grid data [bohr] : 0.1000E-03 0.1000E+03 0.1012E+01
  Species H : On-site basis accuracy parameter (for Gram-Schmidt orthonormalisation) not specified.
  Using default value basis_acc =  0.1000000E-03.
  Species H                   : Using default innermost maximum threshold i_radial=  2 for radial functions.
  Species H                   : Default cutoff onset for free atom density etc. : 0.35000000E+01 AA.
  Species H                   : Basic radial grid will be enhanced according to radial_multiplier =   1, to contain    24 grid points.
 
  Reading configuration options for species C                   .
  | Found nuclear charge :   6.0000
  | Found atomic mass :    12.0107000000000      amu
  | Found l_max for Hartree potential  :   4
  | Found cutoff potl. onset [A], width [A], scale factor :    3.50000    1.50000    1.00000
  | Threshold for basis-dependent cutoff potential is   0.100000E-03
  | Found data for basic radial integration grid :    34 points, outermost radius =    5.000 A
  | Found multiplier for basic radial grid :   1
  | Found angular grid specification: user-specified.
  | Specified grid contains     5 separate shells.
  | Check grid settings after all constraints further below.
  | Found free-atom valence shell :  2 s   2.000
  | Found free-atom valence shell :  2 p   2.000
  | No ionic wave fns used. Skipping ion_occ.
  | No ionic wave fns used. Skipping ion_occ.
  | Found hydrogenic basis function :  2 p   1.700
  | Found hydrogenic basis function :  3 d   6.000
  | Found hydrogenic basis function :  2 s   4.900
  Species C                   : Missing cutoff potential type.
  Defaulting to exp(1/x)/(1-x)^2 type cutoff potential.
  Species C : No 'logarithmic' tag. Using default grid for free atom:
  | Default logarithmic grid data [bohr] : 0.1000E-03 0.1000E+03 0.1012E+01
  Species C : On-site basis accuracy parameter (for Gram-Schmidt orthonormalisation) not specified.
  Using default value basis_acc =  0.1000000E-03.
  Species C                   : Using default innermost maximum threshold i_radial=  2 for radial functions.
  Species C                   : Default cutoff onset for free atom density etc. : 0.35000000E+01 AA.
  Species C                   : Basic radial grid will be enhanced according to radial_multiplier =   1, to contain    34 grid points.
 
  Reading configuration options for species N                   .
  | Found nuclear charge :   7.0000
  | Found atomic mass :    14.0067000000000      amu
  | Found l_max for Hartree potential  :   4
  | Found cutoff potl. onset [A], width [A], scale factor :    3.50000    1.50000    1.00000
  | Threshold for basis-dependent cutoff potential is   0.100000E-03
  | Found data for basic radial integration grid :    35 points, outermost radius =    5.000 A
  | Found multiplier for basic radial grid :   1
  | Found angular grid specification: user-specified.
  | Specified grid contains     5 separate shells.
  | Check grid settings after all constraints further below.
  | Found free-atom valence shell :  2 s   2.000
  | Found free-atom valence shell :  2 p   3.000
  | No ionic wave fns used. Skipping ion_occ.
  | No ionic wave fns used. Skipping ion_occ.
  | Found hydrogenic basis function :  2 p   1.800
  | Found hydrogenic basis function :  3 d   6.800
  | Found hydrogenic basis function :  3 s   5.800
  Species N                   : Missing cutoff potential type.
  Defaulting to exp(1/x)/(1-x)^2 type cutoff potential.
  Species N : No 'logarithmic' tag. Using default grid for free atom:
  | Default logarithmic grid data [bohr] : 0.1000E-03 0.1000E+03 0.1012E+01
  Species N : On-site basis accuracy parameter (for Gram-Schmidt orthonormalisation) not specified.
  Using default value basis_acc =  0.1000000E-03.
  Species N                   : Using default innermost maximum threshold i_radial=  2 for radial functions.
  Species N                   : Default cutoff onset for free atom density etc. : 0.35000000E+01 AA.
  Species N                   : Basic radial grid will be enhanced according to radial_multiplier =   1, to contain    35 grid points.
 
  Reading configuration options for species O                   .
  | Found nuclear charge :   8.0000
  | Found atomic mass :    15.9994000000000      amu
  | Found l_max for Hartree potential  :   4
  | Found cutoff potl. onset [A], width [A], scale factor :    3.50000    1.50000    1.00000
  | Threshold for basis-dependent cutoff potential is   0.100000E-03
  | Found data for basic radial integration grid :    36 points, outermost radius =    5.000 A
  | Found multiplier for basic radial grid :   1
  | Found angular grid specification: user-specified.
  | Specified grid contains     5 separate shells.
  | Check grid settings after all constraints further below.
  | Found free-atom valence shell :  2 s   2.000
  | Found free-atom valence shell :  2 p   4.000
  | No ionic wave fns used. Skipping ion_occ.
  | No ionic wave fns used. Skipping ion_occ.
  | Found hydrogenic basis function :  2 p   1.800
  | Found hydrogenic basis function :  3 d   7.600
  | Found hydrogenic basis function :  3 s   6.400
  Species O                   : Missing cutoff potential type.
  Defaulting to exp(1/x)/(1-x)^2 type cutoff potential.
  Species O : No 'logarithmic' tag. Using default grid for free atom:
  | Default logarithmic grid data [bohr] : 0.1000E-03 0.1000E+03 0.1012E+01
  Species O : On-site basis accuracy parameter (for Gram-Schmidt orthonormalisation) not specified.
  Using default value basis_acc =  0.1000000E-03.
  Species O                   : Using default innermost maximum threshold i_radial=  2 for radial functions.
  Species O                   : Default cutoff onset for free atom density etc. : 0.35000000E+01 AA.
  Species O                   : Basic radial grid will be enhanced according to radial_multiplier =   1, to contain    36 grid points.
 
  Finished reading input file 'control.in'. Consistency checks are next.
 
  MPI_IN_PLACE appears to work with this MPI implementation.
  | Keeping use_mpi_in_place .true. (see manual).
  Target number of points in a grid batch is not set. Defaulting to  100
  Method for grid partitioning is not set. Defaulting to parallel hash+maxmin partitioning.
  Batch size limit is not set. Defaulting to    200
  By default, will store active basis functions for each batch.
  If in need of memory, prune_basis_once .false. can be used to disable this option.
  communication_type for Hartree potential was not specified.
  Defaulting to calc_hartree .
  Pulay mixer: Number of initial linear mixing iterations not set.
  Defaulting to    0 iterations.
  Work space size for distributed Hartree potential not set.
  Defaulting to   0.200000E+03 MB.
  Algorithm-dependent basis array size parameters:
  | n_max_pulay                         :       10
  Presetting      1001 iterations before the initial mixing cycle
  is restarted anyway using the sc_init_iter criterion / keyword.
  Presetting a factor      1.000 between actual scf density residual
  and density convergence criterion sc_accuracy_rho below which sc_init_iter
  takes no effect.
  Geometry relaxation not requested: no relaxation will be performed.
  Handling of forces: Unphysical translation and rotation will be removed from forces.
  No accuracy limit for integral partition fn. given. Defaulting to  0.1000E-14.
  No threshold value for u(r) in integrations given. Defaulting to  0.1000E-05.
  No accuracy for occupation numbers given. Defaulting to  0.1000E-12.
  No threshold value for occupation numbers given. Defaulting to  0.0000E+00.
  No accuracy for fermi level given. Defaulting to  0.1000E-19.
  Maximum # of iterations to find E_F not set. Defaulting to  200.
  Preferred method for the eigenvalue solver ('KS_method') not specified in 'control.in'.
  Defaulting to serial version, 'lapack_fast'.
  Will not use alltoall communication since running on < 1024 CPUs.
  Threshold for basis singularities not set.
  Default threshold for basis singularities:  0.1000E-04
  partition_type (choice of integration weights) for integrals was not specified.
  | Using a version of the partition function of Stratmann and coworkers ('stratmann_smoother').
  | At each grid point, the set of atoms used to build the partition table is smoothly restricted to
  | only those atoms whose free-atom density would be non-zero at that grid point.
  Partitioning for Hartree potential was not defined. Using partition_type for integrals.
  | Adjusted default value of keyword multip_moments_threshold to:       0.10000000E-11
  | This value may affect high angular momentum components of the Hartree potential in periodic systems.
  No q(lm)/r^(l+1) cutoff set for long-range Hartree potential.
  | Using default value of  0.100000E-09 .
  | Verify using the multipole_threshold keyword.
  Defaulting to new monopole extrapolation.
  Density update method: automatic selection selected.
------------------------------------------------------------


------------------------------------------------------------
          Reading geometry description geometry.in.
------------------------------------------------------------
  Input structure read successfully.
  The structure contains       13 atoms,  and a total of         48.000 electrons.

  Input geometry:
  | No unit cell requested.
  | Atomic structure:
  |       Atom                x [A]            y [A]            z [A]
  |    1: Species C             0.00000000        0.00000000        0.00000000
  |    2: Species H             1.09300000        0.00000000        0.00000000
  |    3: Species N            -0.47961000        0.00000000       -1.41207000
  |    4: Species H            -0.77311000       -0.94620000       -1.65782000
  |    5: Species H            -1.26444000        0.64341000       -1.49070000
  |    6: Species C            -0.49584000        1.26211000        0.72868000
  |    7: Species H            -1.58789000        1.28919000        0.74431000
  |    8: Species H            -0.13407000        1.27425000        1.75947000
  |    9: Species H            -0.13407000        2.16087000        0.22380000
  |   10: Species C            -0.39425000       -1.28861000        0.74398000
  |   11: Species O            -0.10189000       -1.56493000        1.88303000
  |   12: Species O            -1.10210000       -2.13717000        0.06896000
  |   13: Species H            -1.70007000       -1.50737000       -0.36779000
  |

  | The smallest distance between any two atoms is         0.97209399 AA.
  |
  | The first atom of this pair is atom number                     12 .
  | The second atom of this pair is atom number                    13 .

  Number of empty states per atom not set in control.in - providing a guess from actual geometry.
  | Total number of empty states used during s.c.f. cycle:       29
  If you use a very high smearing, use empty_states (per atom!) in control.in to increase this value.

  Structure-dependent array size parameters: 
  | Maximum number of distinct radial functions  :       21
  | Maximum number of basis functions            :      119
  | Number of Kohn-Sham states (occupied + empty):       53
------------------------------------------------------------

------------------------------------------------------------
          Preparing all fixed parts of the calculation.
------------------------------------------------------------
  Determining machine precision:
    2.225073858507201E-308
  Setting up grids for atomic and cluster calculations.

  Creating wave function, potential, and density for free atoms.

  Species: H

  List of occupied orbitals and eigenvalues:
    n    l              occ      energy [Ha]    energy [eV]
    1    0           1.0000        -0.237589        -6.4651


  Species: C

  List of occupied orbitals and eigenvalues:
    n    l              occ      energy [Ha]    energy [eV]
    1    0           2.0000       -10.038835      -273.1706
    2    0           2.0000        -0.502696       -13.6791
    2    1           2.0000        -0.191971        -5.2238


  Species: N

  List of occupied orbitals and eigenvalues:
    n    l              occ      energy [Ha]    energy [eV]
    1    0           2.0000       -14.128000      -384.4424
    2    0           2.0000        -0.681077       -18.5330
    2    1           3.0000        -0.259788        -7.0692


  Species: O

  List of occupied orbitals and eigenvalues:
    n    l              occ      energy [Ha]    energy [eV]
    1    0           2.0000       -18.898188      -514.2459
    2    0           2.0000        -0.878505       -23.9053
    2    1           4.0000        -0.331779        -9.0282

  Creating fixed part of basis set: Ionic, confined, hydrogenic.
 
  H                    hydrogenic:
 
  List of hydrogenic basis orbitals: 
    n    l      effective z      eigenvalue [eV]  inner max. [A]     outer max. [A]     outer radius [A]   
    2    0         2.100000       -14.9728           0.193243           1.317208           4.583499
    2    1         3.500000       -41.6669           0.602369           0.602369           3.723403
 
 
  C                    hydrogenic:
 
  List of hydrogenic basis orbitals: 
    n    l      effective z      eigenvalue [eV]  inner max. [A]     outer max. [A]     outer radius [A]   
    2    1         1.700000        -9.7616           1.230570           1.230570           4.607917
    3    2         6.000000       -54.4224           0.792453           0.792453           3.883070
    2    0         4.900000       -81.6679           0.082559           0.562749           3.078220
 
 
  N                    hydrogenic:
 
  List of hydrogenic basis orbitals: 
    n    l      effective z      eigenvalue [eV]  inner max. [A]     outer max. [A]     outer radius [A]   
    2    1         1.800000       -10.9749           1.177451           1.177451           4.573712
    3    2         6.800000       -69.9026           0.704619           0.704619           3.538137
    3    0         5.800000       -50.8545           0.067388           1.191934           4.250239
 
 
  O                    hydrogenic:
 
  List of hydrogenic basis orbitals: 
    n    l      effective z      eigenvalue [eV]  inner max. [A]     outer max. [A]     outer radius [A]   
    2    1         1.800000       -10.9749           1.164242           1.164242           4.578029
    3    2         7.600000       -87.3180           0.624125           0.624125           3.251020
    3    0         6.400000       -61.9207           0.061167           1.081902           4.001998
 

  Adding cutoff potential to free-atom effective potential.
  Creating atomic-like basis functions for current effective potential.

  Species H                   :

  List of atomic basis orbitals and eigenvalues:
    n    l      energy [Ha]    energy [eV]    outer radius [A]
    1    0        -0.237589        -6.4651       4.527807


  Species C                   :

  List of atomic basis orbitals and eigenvalues:
    n    l      energy [Ha]    energy [eV]    outer radius [A]
    1    0       -10.038835      -273.1706       1.934409
    2    0        -0.502696       -13.6791       4.496620
    2    1        -0.191971        -5.2238       4.551928


  Species N                   :

  List of atomic basis orbitals and eigenvalues:
    n    l      energy [Ha]    energy [eV]    outer radius [A]
    1    0       -14.128000      -384.4424       1.637919
    2    0        -0.681077       -18.5330       4.463241
    2    1        -0.259788        -7.0692       4.518138


  Species O                   :

  List of atomic basis orbitals and eigenvalues:
    n    l      energy [Ha]    energy [eV]    outer radius [A]
    1    0       -18.898188      -514.2459       1.415765
    2    0        -0.878505       -23.9053       4.413171
    2    1        -0.331779        -9.0282       4.522403

  Assembling full basis from fixed parts.
  | Species H :   atomic orbital   1 s accepted.
  | Species H :    hydro orbital   2 s accepted.
  | Species H :    hydro orbital   2 p accepted.
  | Species C :   atomic orbital   1 s accepted.
  | Species C :    hydro orbital   2 s accepted.
  | Species C :   atomic orbital   2 s accepted.
  | Species C :   atomic orbital   2 p accepted.
  | Species C :    hydro orbital   2 p accepted.
  | Species C :    hydro orbital   3 d accepted.
  | Species N :   atomic orbital   1 s accepted.
  | Species N :    hydro orbital   3 s accepted.
  | Species N :   atomic orbital   2 s accepted.
  | Species N :   atomic orbital   2 p accepted.
  | Species N :    hydro orbital   2 p accepted.
  | Species N :    hydro orbital   3 d accepted.
  | Species O :   atomic orbital   1 s accepted.
  | Species O :    hydro orbital   3 s accepted.
  | Species O :   atomic orbital   2 s accepted.
  | Species O :   atomic orbital   2 p accepted.
  | Species O :    hydro orbital   2 p accepted.
  | Species O :    hydro orbital   3 d accepted.
 
  Basis size parameters after reduction:
  | Total number of radial functions:       21
  | Total number of basis functions :      119
 
  Per-task memory consumption for arrays in subroutine allocate_ext:
  |           5.250512MB.
  Testing on-site integration grid accuracy.
  |  Species  Function  <phi|h_atom|phi> (log., in eV)  <phi|h_atom|phi> (rad., in eV)
           1        1                 -6.4663192853                 -6.4651273558
           1        2                 13.7111246313                 13.7170609718
           1        3                 25.2673269279                 25.2674696378
           2        4               -273.1705927641               -273.1705631568
           2        5                -10.7109323383                -10.7107120029
           2        6                 17.4381822266                 17.4352413244
           2        7                 -5.2255326521                 -5.2270484734
           2        8                  8.6835629259                  8.6603288385
           2        9                 27.4952418996                 27.4953360207
           3       10               -384.4424306495               -384.4423701208
           3       11                 12.5842251816                 12.5842222903
           3       12                -15.7264628251                -15.7264433455
           3       13                 -7.0696854293                 -7.0701769954
           3       14                  8.8090390882                  8.7901077751
           3       15                 35.9586762123                 35.9588528632
           4       16               -514.2458688638               -514.2457643834
           4       17                 15.1795651126                 15.1795290741
           4       18                -21.5359799773                -21.5360846186
           4       19                 -9.0283069236                 -9.0284644067
           4       20                  8.3027758564                  8.2834874195
           4       21                 45.8339351984                 45.8338762259

  Preparing densities etc. for the partition functions (integrals / Hartree potential).

  Preparations completed.
  max(cpu_time)          :      0.145 s.
  Wall clock time (cpu1) :      0.146 s.
------------------------------------------------------------

------------------------------------------------------------
          Begin self-consistency loop: Initialization.

          Date     :  20200805, Time     :  182249.205
------------------------------------------------------------

  Initializing index lists of integration centers etc. from given atomic structure:
  | Number of centers in hartree potential         :        13
  | Number of centers in hartree multipole         :        13
  | Number of centers in electron density summation:        13
  | Number of centers in basis integrals           :        13
  | Number of centers in integrals                 :        13
  | Number of centers in hamiltonian               :        13
  Partitioning the integration grid into batches with parallel hashing+maxmin method.
  | Number of batches:      959
  | Maximal batch size:     139
  | Minimal batch size:      66
  | Average batch size:      72.624
  | Standard deviation of batch sizes:      17.227

  Integration load balanced across     1 MPI tasks.
  Work distribution over tasks is as follows:
  Task     0 has      69646 integration points.
  Initializing partition tables, free-atom densities, potentials, etc. across the integration grid (initialize_grid_storage).
  | initialize_grid_storage: Actual outermost partition radius vs. multipole_radius_free
  | (-- VB: in principle, multipole_radius_free should be larger, hence this output)
  | Species        1: Confinement radius =              4.999999999999999 AA, multipole_radius_free =              5.054417573612229 AA.
  | Species        1: outer_partition_radius set to              5.054417573612229 AA .
  | Species        2: Confinement radius =              4.999999999999999 AA, multipole_radius_free =              5.019602836301480 AA.
  | Species        2: outer_partition_radius set to              5.019602836301480 AA .
  | Species        3: Confinement radius =              4.999999999999999 AA, multipole_radius_free =              5.043624274424571 AA.
  | Species        3: outer_partition_radius set to              5.043624274424571 AA .
  | Species        4: Confinement radius =              4.999999999999999 AA, multipole_radius_free =              5.048384829883283 AA.
  | Species        4: outer_partition_radius set to              5.048384829883283 AA .
  | Original list of interatomic distances with          13 x         13 entries is created.
  | Net number of integration points:    69646
  | of which are non-zero points    :    59277
  Renormalizing the initial density to the exact electron count on the 3D integration grid.
  | Initial density: Formal number of electrons (from input files) :      48.0000000000
  | Integrated number of electrons on 3D grid     :      47.9998867059
  | Charge integration error                      :      -0.0001132941
  | Normalization factor for density and gradient :       1.0000023603
  Obtaining max. number of non-zero basis functions in each batch (get_n_compute_maxes).
  | Maximal number of non-zero basis functions:      119 in task     0
  Selecting the method for density update.
  Loop over occupied states selected for charge density update.
  Allocating        0.050 MB for KS_eigenvector
  Integrating Hamiltonian matrix: batch-based integration.
  Time summed over all CPUs for integration: real work        0.496 s, elapsed        0.496 s
  Integrating overlap matrix.
  Time summed over all CPUs for integration: real work        0.212 s, elapsed        0.212 s

  Updating Kohn-Sham eigenvalues and eigenvectors using ELSI and the ELPA eigensolver.
  Overlap matrix is nonsingular
  | Lowest eigenvalue of overlap  :  0.53E-02
  | Highest eigenvalue of overlap :  0.64E+01
  Finished singularity check of overlap matrix
  | Time :     0.002 s
  Finished Cholesky decomposition
  | Time :     0.000 s
  Finished transformation to standard eigenproblem
  | Time :     0.000 s
  Starting LAPACK eigensolver
  Finished solving standard eigenproblem
  | Time :     0.002 s
  Finished back-transformation of eigenvectors
  | Time :     0.000 s

  Obtaining occupation numbers and chemical potential using ELSI.
  | Chemical potential (Fermi level):    -9.47416373eV
  Writing Kohn-Sham eigenvalues.

  State    Occupation    Eigenvalue [Ha]    Eigenvalue [eV]
      1       2.00000         -19.008371         -517.24409
      2       2.00000         -18.977143         -516.39435
      3       2.00000         -14.246460         -387.66589
      4       2.00000         -10.166872         -276.65468
      5       2.00000         -10.141701         -275.96972
      6       2.00000         -10.132148         -275.70979
      7       2.00000          -1.183228          -32.19728
      8       2.00000          -1.101495          -29.97321
      9       2.00000          -0.992994          -27.02075
     10       2.00000          -0.860275          -23.40927
     11       2.00000          -0.755338          -20.55379
     12       2.00000          -0.680808          -18.52572
     13       2.00000          -0.641608          -17.45905
     14       2.00000          -0.609544          -16.58654
     15       2.00000          -0.585917          -15.94360
     16       2.00000          -0.558815          -15.20612
     17       2.00000          -0.545778          -14.85138
     18       2.00000          -0.538089          -14.64214
     19       2.00000          -0.517733          -14.08824
     20       2.00000          -0.494221          -13.44843
     21       2.00000          -0.470712          -12.80871
     22       2.00000          -0.431277          -11.73563
     23       2.00000          -0.416534          -11.33447
     24       2.00000          -0.379971          -10.33953
     25       0.00000          -0.154041           -4.19167
     26       0.00000          -0.069179           -1.88246
     27       0.00000          -0.029055           -0.79062
     28       0.00000          -0.016855           -0.45866
     29       0.00000          -0.001111           -0.03023
     30       0.00000           0.009715            0.26437
     31       0.00000           0.019158            0.52131
     32       0.00000           0.028906            0.78659
     33       0.00000           0.050459            1.37305
     34       0.00000           0.057967            1.57737
     35       0.00000           0.098097            2.66936
     36       0.00000           0.132067            3.59372
     37       0.00000           0.156462            4.25754
     38       0.00000           0.202656            5.51455
     39       0.00000           0.221475            6.02664
     40       0.00000           0.233645            6.35781
     41       0.00000           0.251362            6.83991
     42       0.00000           0.272789            7.42297
     43       0.00000           0.290715            7.91075
     44       0.00000           0.296392            8.06522
     45       0.00000           0.314026            8.54509
     46       0.00000           0.356917            9.71220
     47       0.00000           0.367167            9.99112
     48       0.00000           0.396703           10.79483
     49       0.00000           0.421589           11.47203
     50       0.00000           0.478499           13.02062
     51       0.00000           0.518045           14.09672
     52       0.00000           0.547989           14.91153
     53       0.00000           0.569546           15.49813

  Highest occupied state (VBM) at    -10.33953397 eV
  | Occupation number:      2.00000000

  Lowest unoccupied state (CBM) at    -4.19167242 eV
  | Occupation number:      0.00000000

  Overall HOMO-LUMO gap:      6.14786154 eV.
  Calculating total energy contributions from superposition of free atom densities.

  Total energy components:
  | Sum of eigenvalues            :        -188.87406374 Ha       -5139.52477054 eV
  | XC energy correction          :         -41.80775329 Ha       -1137.64684973 eV
  | XC potential correction       :          53.74641743 Ha        1462.51443012 eV
  | Free-atom electrostatic energy:        -146.81813899 Ha       -3995.12483169 eV
  | Hartree energy correction     :           0.00000000 Ha           0.00000000 eV
  | vdW energy correction         :           0.00000000 Ha           0.00000000 eV
  | Entropy correction            :           0.00000000 Ha           0.00000000 eV
  | ---------------------------
  | Total energy                  :        -323.75353859 Ha       -8809.78202184 eV
  | Total energy, T -> 0          :        -323.75353859 Ha       -8809.78202184 eV  <-- do not rely on this value for anything but (periodic) metals
  | Electronic free energy        :        -323.75353859 Ha       -8809.78202184 eV

  Derived energy quantities:
  | Kinetic energy                :         320.54065145 Ha        8722.35491452 eV
  | Electrostatic energy          :        -602.48643676 Ha      -16394.49008663 eV
  | Energy correction for multipole
  | error in Hartree potential    :           0.00000000 Ha           0.00000000 eV
  | Sum of eigenvalues per atom                           :        -395.34805927 eV
  | Total energy (T->0) per atom                          :        -677.67554014 eV  <-- do not rely on this value for anything but (periodic) metals
  | Electronic free energy per atom                       :        -677.67554014 eV
  Initialize hartree_potential_storage
  Max. number of atoms included in rho_multipole:           13

  End scf initialization - timings             :  max(cpu_time)    wall_clock(cpu1)
  | Time for scf. initialization               :        1.150 s           1.152 s
  | Boundary condition initialization          :        0.000 s           0.000 s
  | Integration                                :        0.709 s           0.709 s
  | Solution of K.-S. eqns.                    :        0.004 s           0.004 s
  | Grid partitioning                          :        0.111 s           0.112 s
  | Preloading free-atom quantities on grid    :        0.002 s           0.002 s
  | Free-atom superposition energy             :        0.084 s           0.084 s
  | Total energy evaluation                    :        0.000 s           0.000 s

  Partial memory accounting:
  | Current value for overall tracked memory usage on task 0  :           0.165 MB
  | Peak value for overall tracked memory usage on task 0     :           0.678 MB after allocating wave
  | Largest tracked array allocation on task 0 so far         :           0.132 MB  when allocating H_times_psi
  Note:  These values currently only include a subset of arrays which are explicitly tracked.
  The "true" memory usage will be greater.
------------------------------------------------------------

------------------------------------------------------------
          Begin self-consistency iteration #    1

  Date     :  20200805, Time     :  182250.357
------------------------------------------------------------
  Evaluating new KS density.
  Integration grid: deviation in total charge (<rho> - N_e) =  -2.842171E-14
  Pulay mixing of updated and previous charge densities.

  Evaluating partitioned Hartree potential by multipole expansion.
  | Analytical far-field extrapolation by fixed multipoles:
  | Hartree multipole sum: apparent total charge =  -0.217504E-03
  Summing up the Hartree potential.
  Time summed over all CPUs for potential: real work        0.280 s, elapsed        0.280 s
  | RMS charge density error from multipole expansion :   0.589143E-02

  Integrating Hamiltonian matrix: batch-based integration.
  Time summed over all CPUs for integration: real work        0.494 s, elapsed        0.494 s

  Updating Kohn-Sham eigenvalues and eigenvectors using ELSI and the ELPA eigensolver.
  Finished Cholesky decomposition
  | Time :     0.000 s
  Finished transformation to standard eigenproblem
  | Time :     0.000 s
  Starting LAPACK eigensolver
  Finished solving standard eigenproblem
  | Time :     0.001 s
  Finished back-transformation of eigenvectors
  | Time :     0.000 s

  Obtaining occupation numbers and chemical potential using ELSI.
  | Chemical potential (Fermi level):    -4.39174208eV
  Writing Kohn-Sham eigenvalues.

  State    Occupation    Eigenvalue [Ha]    Eigenvalue [eV]
      1       2.00000         -18.909530         -514.55449
      2       2.00000         -18.833486         -512.48523
      3       2.00000         -14.105212         -383.82234
      4       2.00000         -10.116762         -275.29109
      5       2.00000         -10.066990         -273.93674
      6       2.00000         -10.036099         -273.09615
      7       2.00000          -1.137178          -30.94420
      8       2.00000          -1.037917          -28.24315
      9       2.00000          -0.929747          -25.29969
     10       2.00000          -0.798344          -21.72404
     11       2.00000          -0.705799          -19.20577
     12       2.00000          -0.640167          -17.41984
     13       2.00000          -0.590513          -16.06868
     14       2.00000          -0.557449          -15.16897
     15       2.00000          -0.527235          -14.34680
     16       2.00000          -0.498234          -13.55765
     17       2.00000          -0.490667          -13.35174
     18       2.00000          -0.482349          -13.12538
     19       2.00000          -0.455554          -12.39626
     20       2.00000          -0.441085          -12.00253
     21       2.00000          -0.414675          -11.28389
     22       2.00000          -0.372051          -10.12402
     23       2.00000          -0.346210           -9.42085
     24       2.00000          -0.310946           -8.46128
     25       0.00000          -0.117847           -3.20679
     26       0.00000          -0.050150           -1.36466
     27       0.00000           0.010428            0.28375
     28       0.00000           0.011653            0.31710
     29       0.00000           0.026166            0.71202
     30       0.00000           0.043034            1.17103
     31       0.00000           0.052505            1.42872
     32       0.00000           0.066069            1.79782
     33       0.00000           0.081603            2.22054
     34       0.00000           0.094454            2.57022
     35       0.00000           0.138262            3.76230
     36       0.00000           0.160784            4.37517
     37       0.00000           0.178722            4.86326
     38       0.00000           0.230434            6.27042
     39       0.00000           0.248950            6.77427
     40       0.00000           0.263409            7.16772
     41       0.00000           0.283927            7.72605
     42       0.00000           0.307731            8.37378
     43       0.00000           0.325580            8.85948
     44       0.00000           0.331387            9.01751
     45       0.00000           0.348943            9.49522
     46       0.00000           0.398978           10.85675
     47       0.00000           0.403688           10.98492
     48       0.00000           0.432565           11.77068
     49       0.00000           0.454143           12.35785
     50       0.00000           0.513454           13.97179
     51       0.00000           0.549846           14.96206
     52       0.00000           0.578312           15.73667
     53       0.00000           0.600726           16.34658

  Highest occupied state (VBM) at     -8.46128357 eV
  | Occupation number:      2.00000000

  Lowest unoccupied state (CBM) at    -3.20678524 eV
  | Occupation number:      0.00000000

  Overall HOMO-LUMO gap:      5.25449833 eV.

  Total energy components:
  | Sum of eigenvalues            :        -185.60840067 Ha       -5050.66155695 eV
  | XC energy correction          :         -42.13092584 Ha       -1146.44082238 eV
  | XC potential correction       :          54.16659891 Ha        1473.94815005 eV
  | Free-atom electrostatic energy:        -146.81813899 Ha       -3995.12483169 eV
  | Hartree energy correction     :          -3.18423488 Ha         -86.64743966 eV
  | vdW energy correction         :           0.00000000 Ha           0.00000000 eV
  | Entropy correction            :           0.00000000 Ha           0.00000000 eV
  | ---------------------------
  | Total energy                  :        -323.57510147 Ha       -8804.92650064 eV
  | Total energy, T -> 0          :        -323.57510147 Ha       -8804.92650064 eV  <-- do not rely on this value for anything but (periodic) metals
  | Electronic free energy        :        -323.57510147 Ha       -8804.92650064 eV

  Derived energy quantities:
  | Kinetic energy                :         322.30828833 Ha        8770.45476133 eV
  | Electrostatic energy          :        -603.75246396 Ha      -16428.94043959 eV
  | Energy correction for multipole
  | error in Hartree potential    :           0.01174329 Ha           0.31955113 eV
  | Sum of eigenvalues per atom                           :        -388.51242746 eV
  | Total energy (T->0) per atom                          :        -677.30203851 eV  <-- do not rely on this value for anything but (periodic) metals
  | Electronic free energy per atom                       :        -677.30203851 eV

  Self-consistency convergence accuracy:
  | Change of charge density      :  0.5803E+00
  | Change of sum of eigenvalues  :  0.8886E+02 eV
  | Change of total energy        :  0.4856E+01 eV

  End self-consistency iteration #     1       :  max(cpu_time)    wall_clock(cpu1)
  | Time for this iteration                    :        1.187 s           1.188 s
  | Charge density update                      :        0.395 s           0.395 s
  | Density mixing                             :        0.006 s           0.006 s
  | Hartree multipole update                   :        0.009 s           0.009 s
  | Hartree multipole summation                :        0.281 s           0.281 s
  | Integration                                :        0.494 s           0.495 s
  | Solution of K.-S. eqns.                    :        0.002 s           0.002 s
  | Total energy evaluation                    :        0.000 s           0.000 s

  Partial memory accounting:
  | Current value for overall tracked memory usage on task 0  :           0.165 MB
  | Peak value for overall tracked memory usage on task 0     :           0.695 MB after allocating gradient_basis_wave
  | Largest tracked array allocation on task 0 so far         :           0.397 MB  when allocating gradient_basis_wave
  Note:  These values currently only include a subset of arrays which are explicitly tracked.
  The "true" memory usage will be greater.
------------------------------------------------------------

------------------------------------------------------------
          Begin self-consistency iteration #    2

  Date     :  20200805, Time     :  182251.548
------------------------------------------------------------
  Evaluating new KS density.
  Integration grid: deviation in total charge (<rho> - N_e) =   2.131628E-14
  Pulay mixing of updated and previous charge densities.

  Evaluating partitioned Hartree potential by multipole expansion.
  | Analytical far-field extrapolation by fixed multipoles:
  | Hartree multipole sum: apparent total charge =  -0.348089E-03
  Summing up the Hartree potential.
  Time summed over all CPUs for potential: real work        0.280 s, elapsed        0.280 s
  | RMS charge density error from multipole expansion :   0.139405E-01

  Integrating Hamiltonian matrix: batch-based integration.
  Time summed over all CPUs for integration: real work        0.494 s, elapsed        0.494 s

  Updating Kohn-Sham eigenvalues and eigenvectors using ELSI and the ELPA eigensolver.
  Finished Cholesky decomposition
  | Time :     0.000 s
  Finished transformation to standard eigenproblem
  | Time :     0.000 s
  Starting LAPACK eigensolver
  Finished solving standard eigenproblem
  | Time :     0.002 s
  Finished back-transformation of eigenvectors
  | Time :     0.000 s

  Obtaining occupation numbers and chemical potential using ELSI.
  | Chemical potential (Fermi level):    -3.33325231eV
  Highest occupied state (VBM) at     -6.62281185 eV
  | Occupation number:      2.00000000

  Lowest unoccupied state (CBM) at    -1.94784356 eV
  | Occupation number:      0.00000000

  Overall HOMO-LUMO gap:      4.67496829 eV.

  Checking to see if s.c.f. parameters should be adjusted.

  Total energy components:
  | Sum of eigenvalues            :        -182.19209734 Ha       -4957.69921362 eV
  | XC energy correction          :         -42.48169085 Ha       -1155.98562401 eV
  | XC potential correction       :          54.62103447 Ha        1486.31397077 eV
  | Free-atom electrostatic energy:        -146.81813899 Ha       -3995.12483169 eV
  | Hartree energy correction     :          -6.62797643 Ha        -180.35641500 eV
  | vdW energy correction         :           0.00000000 Ha           0.00000000 eV
  | Entropy correction            :           0.00000000 Ha           0.00000000 eV
  | ---------------------------
  | Total energy                  :        -323.49886914 Ha       -8802.85211355 eV
  | Total energy, T -> 0          :        -323.49886914 Ha       -8802.85211355 eV  <-- do not rely on this value for anything but (periodic) metals
  | Electronic free energy        :        -323.49886914 Ha       -8802.85211355 eV

  Derived energy quantities:
  | Kinetic energy                :         323.60290267 Ha        8805.68300990 eV
  | Electrostatic energy          :        -604.62008096 Ha      -16452.54949944 eV
  | Energy correction for multipole
  | error in Hartree potential    :           0.02565873 Ha           0.69820946 eV
  | Sum of eigenvalues per atom                           :        -381.36147797 eV
  | Total energy (T->0) per atom                          :        -677.14247027 eV  <-- do not rely on this value for anything but (periodic) metals
  | Electronic free energy per atom                       :        -677.14247027 eV

  Self-consistency convergence accuracy:
  | Change of charge density      :  0.3628E+00
  | Change of sum of eigenvalues  :  0.9296E+02 eV
  | Change of total energy        :  0.2074E+01 eV

  End self-consistency iteration #     2       :  max(cpu_time)    wall_clock(cpu1)
  | Time for this iteration                    :        1.180 s           1.181 s
  | Charge density update                      :        0.387 s           0.387 s
  | Density mixing                             :        0.007 s           0.007 s
  | Hartree multipole update                   :        0.009 s           0.009 s
  | Hartree multipole summation                :        0.281 s           0.281 s
  | Integration                                :        0.494 s           0.495 s
  | Solution of K.-S. eqns.                    :        0.002 s           0.002 s
  | Total energy evaluation                    :        0.000 s           0.000 s

  Partial memory accounting:
  | Current value for overall tracked memory usage on task 0  :           0.166 MB
  | Peak value for overall tracked memory usage on task 0     :           0.695 MB after allocating gradient_basis_wave
  | Largest tracked array allocation on task 0 so far         :           0.397 MB  when allocating gradient_basis_wave
  Note:  These values currently only include a subset of arrays which are explicitly tracked.
  The "true" memory usage will be greater.
------------------------------------------------------------

------------------------------------------------------------
          Begin self-consistency iteration #    3

  Date     :  20200805, Time     :  182252.732
------------------------------------------------------------
  Evaluating new KS density.
  Integration grid: deviation in total charge (<rho> - N_e) =  -2.131628E-14
  Pulay mixing of updated and previous charge densities.

  Evaluating partitioned Hartree potential by multipole expansion.
  | Analytical far-field extrapolation by fixed multipoles:
  | Hartree multipole sum: apparent total charge =  -0.438257E-03
  Summing up the Hartree potential.
  Time summed over all CPUs for potential: real work        0.280 s, elapsed        0.280 s
  | RMS charge density error from multipole expansion :   0.219823E-01

  Integrating Hamiltonian matrix: batch-based integration.
  Time summed over all CPUs for integration: real work        0.494 s, elapsed        0.494 s

  Updating Kohn-Sham eigenvalues and eigenvectors using ELSI and the ELPA eigensolver.
  Finished Cholesky decomposition
  | Time :     0.000 s
  Finished transformation to standard eigenproblem
  | Time :     0.000 s
  Starting LAPACK eigensolver
  Finished solving standard eigenproblem
  | Time :     0.002 s
  Finished back-transformation of eigenvectors
  | Time :     0.000 s

  Obtaining occupation numbers and chemical potential using ELSI.
  | Chemical potential (Fermi level):    -2.79320569eV
  Highest occupied state (VBM) at     -5.99812751 eV
  | Occupation number:      2.00000000

  Lowest unoccupied state (CBM) at    -1.22913251 eV
  | Occupation number:      0.00000000

  Overall HOMO-LUMO gap:      4.76899500 eV.

  Total energy components:
  | Sum of eigenvalues            :        -180.86819315 Ha       -4921.67394750 eV
  | XC energy correction          :         -42.63668798 Ha       -1160.20331040 eV
  | XC potential correction       :          54.81860359 Ha        1491.69010013 eV
  | Free-atom electrostatic energy:        -146.81813899 Ha       -3995.12483169 eV
  | Hartree energy correction     :          -7.98200025 Ha        -217.20127787 eV
  | vdW energy correction         :           0.00000000 Ha           0.00000000 eV
  | Entropy correction            :           0.00000000 Ha           0.00000000 eV
  | ---------------------------
  | Total energy                  :        -323.48641677 Ha       -8802.51326733 eV
  | Total energy, T -> 0          :        -323.48641677 Ha       -8802.51326733 eV  <-- do not rely on this value for anything but (periodic) metals
  | Electronic free energy        :        -323.48641677 Ha       -8802.51326733 eV

  Derived energy quantities:
  | Kinetic energy                :         323.25186783 Ha        8796.13086592 eV
  | Electrostatic energy          :        -604.10159663 Ha      -16438.44082285 eV
  | Energy correction for multipole
  | error in Hartree potential    :           0.03616905 Ha           0.98420980 eV
  | Sum of eigenvalues per atom                           :        -378.59030365 eV
  | Total energy (T->0) per atom                          :        -677.11640518 eV  <-- do not rely on this value for anything but (periodic) metals
  | Electronic free energy per atom                       :        -677.11640518 eV

  Self-consistency convergence accuracy:
  | Change of charge density      :  0.2039E+00
  | Change of sum of eigenvalues  :  0.3603E+02 eV
  | Change of total energy        :  0.3388E+00 eV

  End self-consistency iteration #     3       :  max(cpu_time)    wall_clock(cpu1)
  | Time for this iteration                    :        1.181 s           1.182 s
  | Charge density update                      :        0.387 s           0.387 s
  | Density mixing                             :        0.008 s           0.009 s
  | Hartree multipole update                   :        0.009 s           0.008 s
  | Hartree multipole summation                :        0.280 s           0.280 s
  | Integration                                :        0.494 s           0.495 s
  | Solution of K.-S. eqns.                    :        0.002 s           0.002 s
  | Total energy evaluation                    :        0.000 s           0.000 s

  Partial memory accounting:
  | Current value for overall tracked memory usage on task 0  :           0.166 MB
  | Peak value for overall tracked memory usage on task 0     :           0.695 MB after allocating gradient_basis_wave
  | Largest tracked array allocation on task 0 so far         :           0.397 MB  when allocating gradient_basis_wave
  Note:  These values currently only include a subset of arrays which are explicitly tracked.
  The "true" memory usage will be greater.
------------------------------------------------------------

------------------------------------------------------------
          Begin self-consistency iteration #    4

  Date     :  20200805, Time     :  182253.917
------------------------------------------------------------
  Evaluating new KS density.
  Integration grid: deviation in total charge (<rho> - N_e) =  -1.421085E-14
  Pulay mixing of updated and previous charge densities.

  Evaluating partitioned Hartree potential by multipole expansion.
  | Analytical far-field extrapolation by fixed multipoles:
  | Hartree multipole sum: apparent total charge =  -0.467460E-03
  Summing up the Hartree potential.
  Time summed over all CPUs for potential: real work        0.280 s, elapsed        0.280 s
  | RMS charge density error from multipole expansion :   0.255246E-01

  Integrating Hamiltonian matrix: batch-based integration.
  Time summed over all CPUs for integration: real work        0.493 s, elapsed        0.493 s

  Updating Kohn-Sham eigenvalues and eigenvectors using ELSI and the ELPA eigensolver.
  Finished Cholesky decomposition
  | Time :     0.000 s
  Finished transformation to standard eigenproblem
  | Time :     0.000 s
  Starting LAPACK eigensolver
  Finished solving standard eigenproblem
  | Time :     0.001 s
  Finished back-transformation of eigenvectors
  | Time :     0.000 s

  Obtaining occupation numbers and chemical potential using ELSI.
  | Chemical potential (Fermi level):    -2.70566243eV
  Highest occupied state (VBM) at     -5.77936572 eV
  | Occupation number:      2.00000000

  Lowest unoccupied state (CBM) at    -1.14843623 eV
  | Occupation number:      0.00000000

  Overall HOMO-LUMO gap:      4.63092948 eV.

  Total energy components:
  | Sum of eigenvalues            :        -180.76957478 Ha       -4918.99040512 eV
  | XC energy correction          :         -42.67308724 Ha       -1161.19378475 eV
  | XC potential correction       :          54.86412449 Ha        1492.92878670 eV
  | Free-atom electrostatic energy:        -146.81813899 Ha       -3995.12483169 eV
  | Hartree energy correction     :          -8.08867450 Ha        -220.10403196 eV
  | vdW energy correction         :           0.00000000 Ha           0.00000000 eV
  | Entropy correction            :           0.00000000 Ha           0.00000000 eV
  | ---------------------------
  | Total energy                  :        -323.48535102 Ha       -8802.48426682 eV
  | Total energy, T -> 0          :        -323.48535102 Ha       -8802.48426682 eV  <-- do not rely on this value for anything but (periodic) metals
  | Electronic free energy        :        -323.48535102 Ha       -8802.48426682 eV

  Derived energy quantities:
  | Kinetic energy                :         322.84832376 Ha        8785.14987310 eV
  | Electrostatic energy          :        -603.66058754 Ha      -16426.44035517 eV
  | Energy correction for multipole
  | error in Hartree potential    :           0.04024652 Ha           1.09516342 eV
  | Sum of eigenvalues per atom                           :        -378.38387732 eV
  | Total energy (T->0) per atom                          :        -677.11417437 eV  <-- do not rely on this value for anything but (periodic) metals
  | Electronic free energy per atom                       :        -677.11417437 eV

  Self-consistency convergence accuracy:
  | Change of charge density      :  0.6794E-01
  | Change of sum of eigenvalues  :  0.2684E+01 eV
  | Change of total energy        :  0.2900E-01 eV

  End self-consistency iteration #     4       :  max(cpu_time)    wall_clock(cpu1)
  | Time for this iteration                    :        1.180 s           1.181 s
  | Charge density update                      :        0.386 s           0.387 s
  | Density mixing                             :        0.010 s           0.009 s
  | Hartree multipole update                   :        0.009 s           0.009 s
  | Hartree multipole summation                :        0.280 s           0.281 s
  | Integration                                :        0.493 s           0.493 s
  | Solution of K.-S. eqns.                    :        0.002 s           0.002 s
  | Total energy evaluation                    :        0.000 s           0.000 s

  Partial memory accounting:
  | Current value for overall tracked memory usage on task 0  :           0.166 MB
  | Peak value for overall tracked memory usage on task 0     :           0.696 MB after allocating gradient_basis_wave
  | Largest tracked array allocation on task 0 so far         :           0.397 MB  when allocating gradient_basis_wave
  Note:  These values currently only include a subset of arrays which are explicitly tracked.
  The "true" memory usage will be greater.
------------------------------------------------------------

------------------------------------------------------------
          Begin self-consistency iteration #    5

  Date     :  20200805, Time     :  182255.101
------------------------------------------------------------
  Evaluating new KS density.
  Integration grid: deviation in total charge (<rho> - N_e) =  -5.684342E-14
  Pulay mixing of updated and previous charge densities.

  Evaluating partitioned Hartree potential by multipole expansion.
  | Analytical far-field extrapolation by fixed multipoles:
  | Hartree multipole sum: apparent total charge =  -0.462178E-03
  Summing up the Hartree potential.
  Time summed over all CPUs for potential: real work        0.280 s, elapsed        0.280 s
  | RMS charge density error from multipole expansion :   0.252890E-01

  Integrating Hamiltonian matrix: batch-based integration.
  Time summed over all CPUs for integration: real work        0.494 s, elapsed        0.494 s

  Updating Kohn-Sham eigenvalues and eigenvectors using ELSI and the ELPA eigensolver.
  Finished Cholesky decomposition
  | Time :     0.000 s
  Finished transformation to standard eigenproblem
  | Time :     0.000 s
  Starting LAPACK eigensolver
  Finished solving standard eigenproblem
  | Time :     0.002 s
  Finished back-transformation of eigenvectors
  | Time :     0.000 s

  Obtaining occupation numbers and chemical potential using ELSI.
  | Chemical potential (Fermi level):    -2.75021000eV
  Highest occupied state (VBM) at     -5.88669727 eV
  | Occupation number:      2.00000000

  Lowest unoccupied state (CBM) at    -1.22514119 eV
  | Occupation number:      0.00000000

  Overall HOMO-LUMO gap:      4.66155608 eV.

  Total energy components:
  | Sum of eigenvalues            :        -180.92806162 Ha       -4923.30305147 eV
  | XC energy correction          :         -42.65259817 Ha       -1160.63624861 eV
  | XC potential correction       :          54.83755733 Ha        1492.20585749 eV
  | Free-atom electrostatic energy:        -146.81813899 Ha       -3995.12483169 eV
  | Hartree energy correction     :          -7.92381498 Ha        -215.61797614 eV
  | vdW energy correction         :           0.00000000 Ha           0.00000000 eV
  | Entropy correction            :           0.00000000 Ha           0.00000000 eV
  | ---------------------------
  | Total energy                  :        -323.48505643 Ha       -8802.47625042 eV
  | Total energy, T -> 0          :        -323.48505643 Ha       -8802.47625042 eV  <-- do not rely on this value for anything but (periodic) metals
  | Electronic free energy        :        -323.48505643 Ha       -8802.47625042 eV

  Derived energy quantities:
  | Kinetic energy                :         322.75712876 Ha        8782.66833074 eV
  | Electrostatic energy          :        -603.58958702 Ha      -16424.50833255 eV
  | Energy correction for multipole
  | error in Hartree potential    :           0.03966439 Ha           1.07932308 eV
  | Sum of eigenvalues per atom                           :        -378.71561934 eV
  | Total energy (T->0) per atom                          :        -677.11355772 eV  <-- do not rely on this value for anything but (periodic) metals
  | Electronic free energy per atom                       :        -677.11355772 eV

  Self-consistency convergence accuracy:
  | Change of charge density      :  0.2208E-01
  | Change of sum of eigenvalues  : -0.4313E+01 eV
  | Change of total energy        :  0.8016E-02 eV

  End self-consistency iteration #     5       :  max(cpu_time)    wall_clock(cpu1)
  | Time for this iteration                    :        1.183 s           1.184 s
  | Charge density update                      :        0.386 s           0.386 s
  | Density mixing                             :        0.011 s           0.011 s
  | Hartree multipole update                   :        0.009 s           0.009 s
  | Hartree multipole summation                :        0.281 s           0.281 s
  | Integration                                :        0.494 s           0.494 s
  | Solution of K.-S. eqns.                    :        0.002 s           0.002 s
  | Total energy evaluation                    :        0.000 s           0.001 s

  Partial memory accounting:
  | Current value for overall tracked memory usage on task 0  :           0.166 MB
  | Peak value for overall tracked memory usage on task 0     :           0.696 MB after allocating gradient_basis_wave
  | Largest tracked array allocation on task 0 so far         :           0.397 MB  when allocating gradient_basis_wave
  Note:  These values currently only include a subset of arrays which are explicitly tracked.
  The "true" memory usage will be greater.
------------------------------------------------------------

------------------------------------------------------------
          Begin self-consistency iteration #    6

  Date     :  20200805, Time     :  182256.287
------------------------------------------------------------
  Evaluating new KS density.
  Integration grid: deviation in total charge (<rho> - N_e) =  -1.421085E-14
  Pulay mixing of updated and previous charge densities.

  Evaluating partitioned Hartree potential by multipole expansion.
  | Analytical far-field extrapolation by fixed multipoles:
  | Hartree multipole sum: apparent total charge =  -0.464023E-03
  Summing up the Hartree potential.
  Time summed over all CPUs for potential: real work        0.280 s, elapsed        0.280 s
  | RMS charge density error from multipole expansion :   0.256588E-01

  Integrating Hamiltonian matrix: batch-based integration.
  Time summed over all CPUs for integration: real work        0.497 s, elapsed        0.497 s

  Updating Kohn-Sham eigenvalues and eigenvectors using ELSI and the ELPA eigensolver.
  Finished Cholesky decomposition
  | Time :     0.000 s
  Finished transformation to standard eigenproblem
  | Time :     0.000 s
  Starting LAPACK eigensolver
  Finished solving standard eigenproblem
  | Time :     0.002 s
  Finished back-transformation of eigenvectors
  | Time :     0.000 s

  Obtaining occupation numbers and chemical potential using ELSI.
  | Chemical potential (Fermi level):    -2.75570706eV
  Highest occupied state (VBM) at     -5.88425953 eV
  | Occupation number:      2.00000000

  Lowest unoccupied state (CBM) at    -1.25743073 eV
  | Occupation number:      0.00000000

  Overall HOMO-LUMO gap:      4.62682880 eV.

  Total energy components:
  | Sum of eigenvalues            :        -180.96447764 Ha       -4924.29398178 eV
  | XC energy correction          :         -42.64824426 Ha       -1160.51777278 eV
  | XC potential correction       :          54.83186785 Ha        1492.05103889 eV
  | Free-atom electrostatic energy:        -146.81813899 Ha       -3995.12483169 eV
  | Hartree energy correction     :          -7.88600387 Ha        -214.58908361 eV
  | vdW energy correction         :           0.00000000 Ha           0.00000000 eV
  | Entropy correction            :           0.00000000 Ha           0.00000000 eV
  | ---------------------------
  | Total energy                  :        -323.48499691 Ha       -8802.47463098 eV
  | Total energy, T -> 0          :        -323.48499691 Ha       -8802.47463098 eV  <-- do not rely on this value for anything but (periodic) metals
  | Electronic free energy        :        -323.48499691 Ha       -8802.47463098 eV

  Derived energy quantities:
  | Kinetic energy                :         322.66807659 Ha        8780.24509788 eV
  | Electrostatic energy          :        -603.50482924 Ha      -16422.20195607 eV
  | Energy correction for multipole
  | error in Hartree potential    :           0.03988102 Ha           1.08521780 eV
  | Sum of eigenvalues per atom                           :        -378.79184475 eV
  | Total energy (T->0) per atom                          :        -677.11343315 eV  <-- do not rely on this value for anything but (periodic) metals
  | Electronic free energy per atom                       :        -677.11343315 eV

  Self-consistency convergence accuracy:
  | Change of charge density      :  0.1070E-01
  | Change of sum of eigenvalues  : -0.9909E+00 eV
  | Change of total energy        :  0.1619E-02 eV

  End self-consistency iteration #     6       :  max(cpu_time)    wall_clock(cpu1)
  | Time for this iteration                    :        1.188 s           1.189 s
  | Charge density update                      :        0.387 s           0.387 s
  | Density mixing                             :        0.012 s           0.012 s
  | Hartree multipole update                   :        0.009 s           0.009 s
  | Hartree multipole summation                :        0.281 s           0.281 s
  | Integration                                :        0.497 s           0.498 s
  | Solution of K.-S. eqns.                    :        0.002 s           0.002 s
  | Total energy evaluation                    :        0.000 s           0.000 s

  Partial memory accounting:
  | Current value for overall tracked memory usage on task 0  :           0.166 MB
  | Peak value for overall tracked memory usage on task 0     :           0.696 MB after allocating gradient_basis_wave
  | Largest tracked array allocation on task 0 so far         :           0.397 MB  when allocating gradient_basis_wave
  Note:  These values currently only include a subset of arrays which are explicitly tracked.
  The "true" memory usage will be greater.
------------------------------------------------------------

------------------------------------------------------------
          Begin self-consistency iteration #    7

  Date     :  20200805, Time     :  182257.479
------------------------------------------------------------
  Evaluating new KS density.
  Integration grid: deviation in total charge (<rho> - N_e) =   3.552714E-14
  Pulay mixing of updated and previous charge densities.

  Evaluating partitioned Hartree potential by multipole expansion.
  | Analytical far-field extrapolation by fixed multipoles:
  | Hartree multipole sum: apparent total charge =  -0.464787E-03
  Summing up the Hartree potential.
  Time summed over all CPUs for potential: real work        0.289 s, elapsed        0.289 s
  | RMS charge density error from multipole expansion :   0.257969E-01

  Integrating Hamiltonian matrix: batch-based integration.
  Time summed over all CPUs for integration: real work        0.496 s, elapsed        0.496 s

  Updating Kohn-Sham eigenvalues and eigenvectors using ELSI and the ELPA eigensolver.
  Finished Cholesky decomposition
  | Time :     0.000 s
  Finished transformation to standard eigenproblem
  | Time :     0.000 s
  Starting LAPACK eigensolver
  Finished solving standard eigenproblem
  | Time :     0.001 s
  Finished back-transformation of eigenvectors
  | Time :     0.000 s

[...]
  |   Hirshfeld dipole moment :      0.05902872
  |   Hirshfeld second moments:      0.00275307      -0.02892072      -0.01885504
  |                                 -0.02892072      -0.02221112       0.00982933
  |                                 -0.01885504       0.00982933      -0.01546518
  ----------------------------------------------------------------------
  | Atom    12: O
  |   Hirshfeld charge        :     -0.14353279
  |   Free atom volume        :     23.61338643
  |   Hirshfeld volume        :     20.93682437
  |   Hirshfeld dipole vector :      0.01273904       0.04122299      -0.00613732
  |   Hirshfeld dipole moment :      0.04358079
  |   Hirshfeld second moments:      0.08880111      -0.01841582       0.01798746
  |                                 -0.01841582       0.03088070       0.00582754
  |                                  0.01798746       0.00582754       0.05547371
  ----------------------------------------------------------------------
  | Atom    13: H
  |   Hirshfeld charge        :      0.15525165
  |   Free atom volume        :      9.95071624
  |   Hirshfeld volume        :      6.53352783
  |   Hirshfeld dipole vector :     -0.08591522       0.04365972      -0.03728617
  |   Hirshfeld dipole moment :      0.10333370
  |   Hirshfeld second moments:      0.11605672      -0.00596686       0.00339621
  |                                 -0.00596686       0.08527697       0.02183227
  |                                  0.00339621       0.02183227       0.10497291
  ----------------------------------------------------------------------


  Total energy components:
  | Sum of eigenvalues            :        -180.96026289 Ha       -4924.17929266 eV
  | XC energy correction          :         -42.64562079 Ha       -1160.44638453 eV
  | XC potential correction       :          54.82854481 Ha        1491.96061441 eV
  | Free-atom electrostatic energy:        -146.81813899 Ha       -3995.12483169 eV
  | Hartree energy correction     :          -7.88949698 Ha        -214.68413573 eV
  | vdW energy correction         :          -0.00329041 Ha          -0.08953661 eV
  | Entropy correction            :           0.00000000 Ha           0.00000000 eV
  | ---------------------------
  | Total energy                  :        -323.48826524 Ha       -8802.56356681 eV
  | Total energy, T -> 0          :        -323.48826524 Ha       -8802.56356681 eV  <-- do not rely on this value for anything but (periodic) metals
  | Electronic free energy        :        -323.48826524 Ha       -8802.56356681 eV

  Derived energy quantities:
  | Kinetic energy                :         322.62932424 Ha        8779.19059291 eV
  | Electrostatic energy          :        -603.46867829 Ha      -16421.21823858 eV
  | Energy correction for multipole
  | error in Hartree potential    :           0.03992938 Ha           1.08653376 eV
  | Sum of eigenvalues per atom                           :        -378.78302251 eV
  | Total energy (T->0) per atom                          :        -677.12027437 eV  <-- do not rely on this value for anything but (periodic) metals
  | Electronic free energy per atom                       :        -677.12027437 eV

  atomic forces [eV/Ang]:
  -----------------------
  atom #    1
   Hellmann-Feynman              :  0.300246E+00 -0.188636E+00  0.144325E+01
   Ionic forces                  :  0.000000E+00  0.000000E+00  0.000000E+00
   Multipole                     : -0.136977E+00  0.296820E+00 -0.241532E+00
   Pulay + GGA                   : -0.705052E+00  0.162853E+00 -0.155405E+01
   Van der Waals                 :  0.289947E-02  0.141534E-02 -0.130766E-02
   ----------------------------------------------------------------
   Total forces(   1)            : -0.538884E+00  0.272453E+00 -0.353647E+00
  atom #    2
   Hellmann-Feynman              :  0.339761E+00 -0.608343E-01  0.744731E-01
   Ionic forces                  :  0.000000E+00  0.000000E+00  0.000000E+00
   Multipole                     :  0.175137E+00  0.332746E-01 -0.367483E-01
   Pulay + GGA                   : -0.164962E+00  0.300511E-01 -0.131029E-01
   Van der Waals                 :  0.438902E-02 -0.320289E-02 -0.631965E-02
   ----------------------------------------------------------------
   Total forces(   2)            :  0.354325E+00 -0.711478E-03  0.183023E-01
  atom #    3
   Hellmann-Feynman              :  0.842707E+01  0.309728E+01 -0.517331E+01
   Ionic forces                  :  0.000000E+00  0.000000E+00  0.000000E+00
   Multipole                     : -0.250298E+00  0.152481E+00 -0.110390E+01
   Pulay + GGA                   : -0.788967E+01 -0.315250E+01  0.690771E+01
   Van der Waals                 :  0.409042E-02 -0.479360E-02 -0.878062E-02
   ----------------------------------------------------------------
   Total forces(   3)            :  0.291189E+00  0.924682E-01  0.621713E+00
  atom #    4
   Hellmann-Feynman              :  0.208239E-01  0.733635E-01 -0.440980E+00
   Ionic forces                  :  0.000000E+00  0.000000E+00  0.000000E+00
   Multipole                     : -0.610180E-01 -0.706875E-01 -0.614780E-01
   Pulay + GGA                   :  0.211504E+00  0.204180E+00 -0.463530E-01
   Van der Waals                 : -0.237052E-02  0.337149E-02  0.144490E-02
   ----------------------------------------------------------------
   Total forces(   4)            :  0.168939E+00  0.210228E+00 -0.547366E+00
  atom #    5
   Hellmann-Feynman              : -0.338889E+00  0.192525E-01 -0.115728E+00
   Ionic forces                  :  0.000000E+00  0.000000E+00  0.000000E+00
   Multipole                     : -0.865582E-01  0.243524E-01 -0.484554E-01
   Pulay + GGA                   :  0.226208E+00 -0.577737E-01 -0.476535E-01
   Van der Waals                 : -0.605961E-03 -0.206857E-02 -0.909609E-02
   ----------------------------------------------------------------
   Total forces(   5)            : -0.199845E+00 -0.162373E-01 -0.220933E+00
  atom #    6
   Hellmann-Feynman              :  0.210302E+00 -0.399146E+00  0.110418E+00
   Ionic forces                  :  0.000000E+00  0.000000E+00  0.000000E+00
   Multipole                     : -0.156942E+00  0.577411E+00  0.284809E+00
   Pulay + GGA                   :  0.248242E+00 -0.573436E+00 -0.390034E+00
   Van der Waals                 : -0.340311E-02  0.369407E-02 -0.379701E-02
   ----------------------------------------------------------------
   Total forces(   6)            :  0.298200E+00 -0.391477E+00  0.139594E-02
  atom #    7
   Hellmann-Feynman              : -0.261608E+00 -0.600200E-01 -0.308622E-01
   Ionic forces                  :  0.000000E+00  0.000000E+00  0.000000E+00
   Multipole                     : -0.117287E+00  0.500785E-01  0.298345E-01
   Pulay + GGA                   :  0.102586E+00  0.252773E-01  0.412234E-01
   Van der Waals                 : -0.274228E-02  0.609837E-03  0.668258E-02
   ----------------------------------------------------------------
   Total forces(   7)            : -0.279050E+00  0.159458E-01  0.468783E-01
  atom #    8
   Hellmann-Feynman              :  0.732419E-01 -0.403629E-01  0.133416E+00
   Ionic forces                  :  0.000000E+00  0.000000E+00  0.000000E+00
   Multipole                     :  0.112727E-01  0.663037E-01  0.125560E+00
   Pulay + GGA                   : -0.476183E-01 -0.458806E-01 -0.117864E+00
   Van der Waals                 : -0.331592E-02  0.110742E-01  0.604560E-03
   ----------------------------------------------------------------
   Total forces(   8)            :  0.335804E-01 -0.886553E-02  0.141716E+00
  atom #    9
   Hellmann-Feynman              :  0.967273E-01  0.724136E-01 -0.167214E+00
   Ionic forces                  :  0.000000E+00  0.000000E+00  0.000000E+00
   Multipole                     :  0.194075E-01  0.131729E+00 -0.106951E-01
   Pulay + GGA                   : -0.299464E-01 -0.933913E-01  0.487958E-01
   Van der Waals                 : -0.702136E-04  0.699068E-02  0.818503E-02
   ----------------------------------------------------------------
   Total forces(   9)            :  0.861181E-01  0.117742E+00 -0.120928E+00
  atom #   10
   Hellmann-Feynman              :  0.264555E+01  0.472841E+01  0.244545E+01
   Ionic forces                  :  0.000000E+00  0.000000E+00  0.000000E+00
   Multipole                     :  0.623842E-01 -0.187186E-01  0.211612E+00
   Pulay + GGA                   : -0.103723E+01 -0.325124E+01 -0.385811E+00
   Van der Waals                 :  0.384669E-02 -0.146476E-01  0.321229E-02
   ----------------------------------------------------------------
   Total forces(  10)            :  0.167455E+01  0.144381E+01  0.227447E+01
  atom #   11
   Hellmann-Feynman              :  0.394194E+01 -0.242465E+01  0.141713E+02
   Ionic forces                  :  0.000000E+00  0.000000E+00  0.000000E+00
   Multipole                     : -0.101872E-01 -0.455423E+00  0.824181E+00
   Pulay + GGA                   : -0.288757E+01  0.332076E+01 -0.141568E+02
   Van der Waals                 : -0.260164E-03 -0.121469E-01  0.558701E-02
   ----------------------------------------------------------------
   Total forces(  11)            :  0.104392E+01  0.428539E+00  0.844282E+00
  atom #   12
   Hellmann-Feynman              : -0.181751E+01 -0.148586E+02 -0.172321E+01
   Ionic forces                  :  0.000000E+00  0.000000E+00  0.000000E+00
   Multipole                     : -0.881629E+00 -0.155692E+01  0.556549E-01
   Pulay + GGA                   :  0.499209E+00  0.146414E+02  0.812923E-01
   Van der Waals                 : -0.154798E-03  0.802239E-02  0.341666E-02
   ----------------------------------------------------------------
   Total forces(  12)            : -0.220008E+01 -0.176614E+01 -0.158285E+01
  atom #   13
   Hellmann-Feynman              : -0.865124E+00 -0.188281E+00 -0.133290E+01
   Ionic forces                  :  0.000000E+00  0.000000E+00  0.000000E+00
   Multipole                     : -0.804335E-01  0.694577E-01 -0.341078E-01
   Pulay + GGA                   :  0.209850E+00 -0.278985E+00  0.238118E+00
   Van der Waals                 : -0.230262E-02  0.168153E-02  0.168005E-03
   ----------------------------------------------------------------
   Total forces(  13)            : -0.738010E+00 -0.396127E+00 -0.112872E+01

  Timings for VdW correction (Tkatchenko-Scheffler 2009 or later):
  | CPU time:        0.091 s, Wall clock time:        0.092 s.
  Removing unitary transformations (pure translations, rotations) from forces on atoms.
  Atomic forces before filtering:
  | Net force on center of mass :  -0.505263E-02  0.162434E-02 -0.568763E-02 eV/A
  | Net torque on center of mass:   0.161825E-02  0.238731E-02 -0.467013E-02 eV
  Atomic forces after filtering:
  | Net force on center of mass :  -0.535218E-15 -0.401414E-15 -0.356812E-15 eV/A
  | Net torque on center of mass:   0.236021E-15  0.377634E-15  0.377634E-15 eV

  Energy and forces in a compact form:
  | Total energy uncorrected      :         -0.880256356680618E+04 eV
  | Total energy corrected        :         -0.880256356680618E+04 eV  <-- do not rely on this value for anything but (periodic) metals
  | Electronic free energy        :         -0.880256356680618E+04 eV
  Total atomic forces (unitary forces cleaned) [eV/Ang]:
  |   1         -0.538495350187143E+00          0.272407654207778E+00         -0.353158622386503E+00
  |   2          0.354713477603865E+00         -0.588628536920024E-03          0.188987494105398E-01
  |   3          0.291716729192981E+00          0.922969380569276E-01          0.622154642657542E+00
  |   4          0.169636041833939E+00          0.210002373514194E+00         -0.546918063355033E+00
  |   5         -0.199408471137166E+00         -0.165320098917399E-01         -0.220592630352153E+00
  |   6          0.298322438565703E+00         -0.391570377582560E+00          0.178877208759273E-02
  |   7         -0.278933381076515E+00          0.156848603326238E-01          0.471625381693661E-01
  |   8          0.335997303408462E-01         -0.886537348037696E-02          0.142144499556963E+00
  |   9          0.861527151136798E-01          0.117684438899297E+00         -0.120532899973419E+00
  |  10          0.167505982843887E+01          0.144373364553811E+01          0.227496607932286E+01
  |  11          0.104436222564399E+01          0.428548257352355E+00          0.844819428888021E+00
  |  12         -0.219937208150968E+01         -0.176635479739375E+01         -0.158239060205889E+01
  |  13         -0.737353902823369E+00         -0.396446981015940E+00         -0.112834189196689E+01

  ------------------------------------ 
  Start decomposition of the XC Energy 
  ------------------------------------ 
  X and C from original XC functional choice 
  Hartree-Fock Energy :          0.000000000 Ha              0.000000000 eV
  X Energy            :        -41.042540848 Ha          -1116.824359866 eV
  C Energy            :         -1.603079941 Ha            -43.622024663 eV
  Total XC Energy     :        -42.645620789 Ha          -1160.446384529 eV
  ------------------------------------ 
  LDA X and C from self-consistent density 
  X Energy LDA        :        -37.264677956 Ha          -1014.023480137 eV
  C Energy LDA        :         -3.139311411 Ha            -85.425009865 eV
  ------------------------------------ 
  End decomposition of the XC Energy 
  ------------------------------------ 

------------------------------------------------------------

------------------------------------------------------------------------------
  Final output of selected total energy values:

  The following output summarizes some interesting total energy values
  at the end of a run (AFTER all relaxation, molecular dynamics, etc.).

  | Total energy of the DFT / Hartree-Fock s.c.f. calculation      :          -8802.563566806 eV
  | Final zero-broadening corrected energy (caution - metals only) :          -8802.563566806 eV
  | For reference only, the value of 1 Hartree used in FHI-aims is :             27.211384500 eV

  Before relying on these values, please be sure to understand exactly which
  total energy value is referred to by a given number. Different objects may
  all carry the same name 'total energy'. Definitions:

  Total energy of the DFT / Hartree-Fock s.c.f. calculation:
  | Note that this energy does not include ANY quantities calculated after the
  | s.c.f. cycle, in particular not ANY RPA, MP2, etc. many-body perturbation terms.

  Final zero-broadening corrected energy:
  | For metallic systems only, a broadening of the occupation numbers at the Fermi
  | level can be extrapolated back to zero broadening by an electron-gas inspired
  | formula. For all systems that are not real metals, this value can be
  | meaningless and should be avoided.

------------------------------------------------------------------------------
  Methods described in the following list of references were used in this FHI-aims run.
  If you publish the results, please make sure to cite these reference if they apply.
  FHI-aims is an academic code, and for our developers (often, Ph.D. students
  and postdocs), scientific credit in the community is essential.
  Thank you for helping us!

  For any use of FHI-aims, please cite:

    Volker Blum, Ralf Gehrke, Felix Hanke, Paula Havu, Ville Havu,
    Xinguo Ren, Karsten Reuter, and Matthias Scheffler
    'Ab initio molecular simulations with numeric atom-centered orbitals'
    Computer Physics Communications 180, 2175-2196 (2009)
    http://dx.doi.org/10.1016/j.cpc.2009.06.022


  The scalable eigensolver library ELPA was used in your run.
  ELPA is essential especially for large systems on hundreds or thousands of CPUs.
  For ELPA, please cite:

    Andreas Marek, Volker Blum, Rainer Johanni, Ville Havu, Bruno Lang,
    Thomas Auckenthaler, Alexander Heinecke, Hans-Joachim Bungartz, and Hermann Lederer,
    'The ELPA Library - Scalable Parallel Eigenvalue Solutions
    for Electronic Structure Theory and Computational Science'
    The Journal of Physics: Condensed Matter 26, 213201 (2014).
    http://dx.doi.org/10.1088/0953-8984/26/21/213201


  The ELSI infrastructure was used in your run to solve the Kohn-Sham electronic structure.
  Please check out http://elsi-interchange.org to learn more.
  If scalability is important for your project, please acknowledge ELSI by citing:

    V. W-z. Yu, F. Corsetti, A. Garcia, W. P. Huhn, M. Jacquelin, W. Jia,
    B. Lange, L. Lin, J. Lu, W. Mi, A. Seifitokaldani, A. Vazquez-Mayagoitia,
    C. Yang, H. Yang, and V. Blum
    'ELSI: A unified software interface for Kohn-Sham electronic structure solvers'
    Computer Physics Communications 222, 267-285 (2018).
    http://dx.doi.org/10.1016/j.cpc.2017.09.007


  For the real-space grid partitioning and parallelization used in this calculation, please cite:

    Ville Havu, Volker Blum, Paula Havu, and Matthias Scheffler,
    'Efficient O(N) integration for all-electron electronic structure calculation'
    'using numerically tabulated basis functions'
    Journal of Computational Physics 228, 8367-8379 (2009).
    http://dx.doi.org/10.1016/j.jcp.2009.08.008

  Of course, there are many other important community references, e.g., those cited in the
  above references. Our list is limited to references that describe implementations in the
  FHI-aims code. The reason is purely practical (length of this list) - please credit others as well.

------------------------------------------------------------
          Leaving FHI-aims.
          Date     :  20200805, Time     :  182311.826

          Computational steps:
          | Number of self-consistency cycles          :           16
          | Number of SCF (re)initializations          :            1

          Detailed time accounting                     :  max(cpu_time)    wall_clock(cpu1)
          | Total time                                 :       22.702 s          22.785 s
          | Preparation time                           :        0.145 s           0.146 s
          | Boundary condition initalization           :        0.000 s           0.000 s
          | Grid partitioning                          :        0.111 s           0.112 s
          | Preloading free-atom quantities on grid    :        0.002 s           0.002 s
          | Free-atom superposition energy             :        0.084 s           0.084 s
          | Total time for integrations                :        8.638 s           8.642 s
          | Total time for solution of K.-S. equations :        0.036 s           0.040 s
          | Total time for density & force components  :        7.166 s           7.172 s
          | Total time for mixing                      :        0.219 s           0.221 s
          | Total time for Hartree multipole update    :        0.140 s           0.142 s
          | Total time for Hartree multipole sum       :        5.762 s           5.779 s
          | Total time for total energy evaluation     :        0.003 s           0.003 s
          | Total time for vdW correction              :        0.091 s           0.092 s

          Partial memory accounting:
          | Residual value for overall tracked memory usage across tasks :           0.000 MB (should be 0.000 MB)
          | Peak values for overall tracked memory usage (after allocating hessian_basis_wave):
          |   Minimum:        1.622 MB (on task 1)
          |   Maximum:        1.622 MB (on task 1)
          |   Average:        1.622 MB
          | Largest tracked array allocation (hessian_basis_wave):
          |   Minimum:        0.794 MB (on task 1)
          |   Maximum:        0.794 MB (on task 1)
          |   Average:        0.794 MB
          Note:  These values currently only include a subset of arrays which are explicitly tracked.
          The "true" memory usage will be greater.

          Have a nice day.
------------------------------------------------------------
