  MPI-parallelism will be employed.
------------------------------------------------------------
          Invoking FHI-aims ...
          Version 171221_1
          Compiled on 2019/09/09 at 14:39:39 on host puhti-login2.bullx.

          When using FHI-aims, please cite the following reference:

          Volker Blum, Ralf Gehrke, Felix Hanke, Paula Havu,
          Ville Havu, Xinguo Ren, Karsten Reuter, and Matthias Scheffler,
          'Ab Initio Molecular Simulations with Numeric Atom-Centered Orbitals',
          Computer Physics Communications 180, 2175-2196 (2009)

          For any questions about FHI-aims, please visit the aimsclub website
          with its forums and wiki. Contributions to both the forums and the
          wiki are warmly encouraged - they are for you, and everyone is welcome there.

------------------------------------------------------------



  Date     :  20200710, Time     :  150953.070
  Time zero on CPU 1             :   0.116090000000000E-01  s.
  Internal wall clock time zero  :           363625793.070  s.

  FHI-aims created a unique identifier for this run for later identification
  aims_uuid : 966BEA49-0BF3-4C32-A844-5730D044277D

  Using        1 parallel tasks.
  Task        0 on host r18c47.bullx reporting.

  Performing system and environment tests:
  | Environment variable OMP_NUM_THREADS correctly set to 1.
  | Stacksize not measured: no C compiler
  | Checking for scalapack...
  | Testing pdtran()...
  | All pdtran() tests passed.

  Obtaining array dimensions for all initial allocations:
  
  -----------------------------------------------------------------------
  Parsing control.in (first pass over file, find array dimensions only).
  The contents of control.in will be repeated verbatim below
  unless switched off by setting 'verbatim_writeout .false.' .
  in the first line of control.in .
  -----------------------------------------------------------------------
  
  #########################################################################################
  #
  #  Volker Blum, FHI 2009 : Test run input file control.in for simple H2O
  #
  #########################################################################################
  #
  #  Physical model
  #
    xc                 pbe
    vdw_correction_hirshfeld
    spin               none
    relativistic       none
    charge             0.
  #
  #  SCF convergence
  #
    occupation_type    gaussian 0.01
    mixer              pulay
      n_max_pulay        10
      charge_mix_param   0.2
    sc_accuracy_rho    1E-5
    sc_accuracy_eev    1E-3
    sc_accuracy_etot   1E-6
    sc_accuracy_forces 1E-4
    sc_iter_limit      100
  #
  #  Relaxation
  #
  #  relax_geometry   bfgs 1.e-3
  #
  ################################################################################
  #
  #  FHI-aims code project
  #  VB, Fritz-Haber Institut, 2009
  #
  #  Suggested "light" defaults for H atom (to be pasted into control.in file)
  #  Be sure to double-check any results obtained with these settings for post-processing,
  #  e.g., with the "tight" defaults and larger basis sets.
  #
  ################################################################################
    species        H
  #     global species definitions
      nucleus             1
      mass                1.00794
  #
      l_hartree           4
  #
      cut_pot             3.5  1.5  1.0
      basis_dep_cutoff    1e-4
  #
      radial_base         24 5.0
      radial_multiplier   1
      angular_grids       specified
        division   0.2421   50
        division   0.3822  110
        division   0.4799  194
        division   0.5341  302
  #      division   0.5626  434
  #      division   0.5922  590
  #      division   0.6542  770
  #      division   0.6868 1202
  #      outer_grid  770
        outer_grid  302
  ################################################################################
  #
  #  Definition of "minimal" basis
  #
  ################################################################################
  #     valence basis states
      valence      1  s   1.
  #     ion occupancy
      ion_occ      1  s   0.5
  ################################################################################
  #
  #  Suggested additional basis functions. For production calculations,
  #  uncomment them one after another (the most important basis functions are
  #  listed first).
  #
  #  Basis constructed for dimers: 0.5 A, 0.7 A, 1.0 A, 1.5 A, 2.5 A
  #
  ################################################################################
  #  "First tier" - improvements: -1014.90 meV to -62.69 meV
       hydro 2 s 2.1
       hydro 2 p 3.5
  #  "Second tier" - improvements: -12.89 meV to -1.83 meV
  #     hydro 1 s 0.85
  #     hydro 2 p 3.7
  #     hydro 2 s 1.2
  #     hydro 3 d 7
  #  "Third tier" - improvements: -0.25 meV to -0.12 meV
  #     hydro 4 f 11.2
  #     hydro 3 p 4.8
  #     hydro 4 d 9
  #     hydro 3 s 3.2
  ################################################################################
  #
  #  FHI-aims code project
  #  VB, Fritz-Haber Institut, 2009
  #
  #  Suggested "light" defaults for C atom (to be pasted into control.in file)
  #  Be sure to double-check any results obtained with these settings for post-processing,
  #  e.g., with the "tight" defaults and larger basis sets.
  #
  ################################################################################
    species        C
  #     global species definitions
      nucleus             6
      mass                12.0107
  #
      l_hartree           4
  #
      cut_pot             3.5  1.5  1.0
      basis_dep_cutoff    1e-4
  #
      radial_base         34 5.0
      radial_multiplier   1
      angular_grids specified
        division   0.3326   50
        division   0.5710  110
        division   0.7727  194
        division   0.8772  302
  #      division   0.9334  434
  #      division   0.9625  590
  #      division   0.9924  770
  #      division   1.0230  974
  #      division   1.4589 1202
  #     outer_grid  974
       outer_grid 302
  ################################################################################
  #
  #  Definition of "minimal" basis
  #
  ################################################################################
  #     valence basis states
      valence      2  s   2.
      valence      2  p   2.
  #     ion occupancy
      ion_occ      2  s   1.
      ion_occ      2  p   1.
  ################################################################################
  #
  #  Suggested additional basis functions. For production calculations,
  #  uncomment them one after another (the most important basis functions are
  #  listed first).
  #
  #  Constructed for dimers: 1.0 A, 1.25 A, 1.5 A, 2.0 A, 3.0 A
  #
  ################################################################################
  #  "First tier" - improvements: -1214.57 meV to -155.61 meV
       hydro 2 p 1.7
       hydro 3 d 6
       hydro 2 s 4.9
  #  "Second tier" - improvements: -67.75 meV to -5.23 meV
  #     hydro 4 f 9.8
  #     hydro 3 p 5.2
  #     hydro 3 s 4.3
  #     hydro 5 g 14.4
  #     hydro 3 d 6.2
  #  "Third tier" - improvements: -2.43 meV to -0.60 meV
  #     hydro 2 p 5.6
  #     hydro 2 s 1.4
  #     hydro 3 d 4.9
  #     hydro 4 f 11.2
  #  "Fourth tier" - improvements: -0.39 meV to -0.18 meV
  #     hydro 2 p 2.1
  #     hydro 5 g 16.4
  #     hydro 4 d 13.2
  #     hydro 3 s 13.6
  #     hydro 4 f 17.6
  #  Further basis functions - improvements: -0.08 meV and below
  #     hydro 3 s 2
  #     hydro 3 p 6
  #     hydro 4 d 20
  ################################################################################
  #
  #  FHI-aims code project
  #  VB, Fritz-Haber Institut, 2009
  #
  #  Suggested "light" defaults for N atom (to be pasted into control.in file)
  #  Be sure to double-check any results obtained with these settings for post-processing,
  #  e.g., with the "tight" defaults and larger basis sets.
  #
  ################################################################################
    species        N
  #     global species definitions
      nucleus             7
      mass                14.0067
  #
      l_hartree           4
  #
      cut_pot             3.5  1.5  1.0
      basis_dep_cutoff    1e-4
  #
      radial_base         35 5.0
      radial_multiplier   1
      angular_grids       specified
        division   0.2599   50
        division   0.4601  110
        division   0.5885  194
        division   0.6503  302
  #      division   0.6939  434
  #      division   0.7396  590
  #      division   0.7632  770
  #      division   0.8122  974
  #      division   1.1604 1202
  #      outer_grid  974
        outer_grid  302
  ################################################################################
  #
  #  Definition of "minimal" basis
  #
  ################################################################################
  #     valence basis states
      valence      2  s   2.
      valence      2  p   3.
  #     ion occupancy
      ion_occ      2  s   1.
      ion_occ      2  p   2.
  ################################################################################
  #
  #  Suggested additional basis functions. For production calculations,
  #  uncomment them one after another (the most important basis functions are
  #  listed first).
  #
  #  Constructed for dimers: 1.0 A, 1.1 A, 1.5 A, 2.0 A, 3.0 A
  #
  ################################################################################
  #  "First tier" - improvements: -1193.42 meV to -220.60 meV
       hydro 2 p 1.8
       hydro 3 d 6.8
       hydro 3 s 5.8
  #  "Second tier" - improvements: -80.21 meV to -6.86 meV
  #     hydro 4 f 10.8
  #     hydro 3 p 5.8
  #     hydro 1 s 0.8
  #     hydro 5 g 16
  #     hydro 3 d 4.9
  #  "Third tier" - improvements: -4.29 meV to -0.53 meV
  #     hydro 3 s 16
  #     ionic 2 p auto
  #     hydro 3 d 6.6
  #     hydro 4 f 11.6
  #  "Fourth tier" - improvements: -0.75 meV to -0.25 meV
  #     hydro 2 p 4.5
  #     hydro 2 s 2.4
  #     hydro 5 g 14.4
  #     hydro 4 d 14.4
  #     hydro 4 f 16.8
  # Further basis functions - -0.21 meV and below
  #     hydro 3 p 14.8
  #     hydro 3 s 4.4
  #     hydro 3 d 19.6
  #     hydro 5 g 12.8
  ################################################################################
  #
  #  FHI-aims code project
  #  VB, Fritz-Haber Institut, 2009
  #
  #  Suggested "light" defaults for O atom (to be pasted into control.in file)
  #  Be sure to double-check any results obtained with these settings for post-processing,
  #  e.g., with the "tight" defaults and larger basis sets.
  #
  ################################################################################
    species        O
  #     global species definitions
      nucleus             8
      mass                15.9994
  #
      l_hartree           4
  #
      cut_pot             3.5  1.5  1.0
      basis_dep_cutoff    1e-4
  #
      radial_base         36 5.0
      radial_multiplier   1
       angular_grids specified
        division   0.2659   50
        division   0.4451  110
        division   0.6052  194
        division   0.7543  302
  #      division   0.8014  434
  #      division   0.8507  590
  #      division   0.8762  770
  #      division   0.9023  974
  #      division   1.2339 1202
  #      outer_grid 974
        outer_grid 302
  ################################################################################
  #
  #  Definition of "minimal" basis
  #
  ################################################################################
  #     valence basis states
      valence      2  s   2.
      valence      2  p   4.
  #     ion occupancy
      ion_occ      2  s   1.
      ion_occ      2  p   3.
  ################################################################################
  #
  #  Suggested additional basis functions. For production calculations,
  #  uncomment them one after another (the most important basis functions are
  #  listed first).
  #
  #  Constructed for dimers: 1.0 A, 1.208 A, 1.5 A, 2.0 A, 3.0 A
  #
  ################################################################################
  #  "First tier" - improvements: -699.05 meV to -159.38 meV
       hydro 2 p 1.8
       hydro 3 d 7.6
       hydro 3 s 6.4
  #  "Second tier" - improvements: -49.91 meV to -5.39 meV
  #     hydro 4 f 11.6
  #     hydro 3 p 6.2
  #     hydro 3 d 5.6
  #     hydro 5 g 17.6
  #     hydro 1 s 0.75
  #  "Third tier" - improvements: -2.83 meV to -0.50 meV
  #     ionic 2 p auto
  #     hydro 4 f 10.8
  #     hydro 4 d 4.7
  #     hydro 2 s 6.8
  #  "Fourth tier" - improvements: -0.40 meV to -0.12 meV
  #     hydro 3 p 5
  #     hydro 3 s 3.3
  #     hydro 5 g 15.6
  #     hydro 4 f 17.6
  #     hydro 4 d 14
  # Further basis functions - -0.08 meV and below
  #     hydro 3 s 2.1
  #     hydro 4 d 11.6
  #     hydro 3 p 16
  #     hydro 2 s 17.2
  
  -----------------------------------------------------------------------
  Completed first pass over input file control.in .
  -----------------------------------------------------------------------
  
  
  -----------------------------------------------------------------------
  Parsing geometry.in (first pass over file, find array dimensions only).
  The contents of geometry.in will be repeated verbatim below
  unless switched off by setting 'verbatim_writeout .false.' .
  in the first line of geometry.in .
  -----------------------------------------------------------------------
  
  atom  0.00000 0.00000 0.00000 C
  atom  1.09300 0.00000 0.00000 H
  atom  -0.47961 0.00000 -1.41207 N
  atom  -1.42942 -0.37305 -1.43490 H
  atom  -0.46867 0.95617 -1.76098 H
  atom  -0.49584 1.26211 0.72868 C
  atom  -1.58789 1.28919 0.74431 H
  atom  -0.13407 1.27425 1.75947 H
  atom  -0.13407 2.16087 0.22380 H
  atom  -0.39425 -1.28861 0.74398 C
  atom  -0.10189 -1.56493 1.88303 O
  atom  -1.10210 -2.13717 0.06896 O
  atom  -0.52534 -2.91341 0.16786 H
  
  -----------------------------------------------------------------------
  Completed first pass over input file geometry.in .
  -----------------------------------------------------------------------
  

  Basic array size parameters:
  | Number of species                 :        4
  | Number of atoms                   :       13
  | Max. basis fn. angular momentum   :        2
  | Max. atomic/ionic basis occupied n:        2
  | Max. number of basis fn. types    :        2
  | Max. radial fns per species/type  :        3
  | Max. logarithmic grid size        :     1301
  | Max. radial integration grid size :       36
  | Max. angular integration grid size:      302
  | Max. angular grid division number :        8
  | Radial grid for Hartree potential :     1301
  | Number of spin channels           :        1

------------------------------------------------------------
          Reading file control.in.
------------------------------------------------------------
  XC: Using PBE gradient-corrected functionals.
  Spin treatment: No spin polarisation.
  Non-relativistic treatment of kinetic energy.
  Charge =   0.000000E+00: Neutral system requested explicitly.
  Occupation type: Gaussian broadening, width =   0.100000E-01 eV.
  Using pulay charge density mixing.
  Pulay mixing - number of memorized iterations:   10
  Charge density mixing - mixing parameter:     0.2000
  Convergence accuracy of self-consistent charge density:  0.1000E-04
  Convergence accuracy of sum of eigenvalues:  0.1000E-02
  Convergence accuracy of total energy:  0.1000E-05
  Convergence accuracy of forces:  0.1000E-03
  Maximum number of s.-c. iterations  :   100
 
  Reading configuration options for species H                   .
  | Found nuclear charge :   1.0000
  | Found atomic mass :    1.00794000000000      amu
  | Found l_max for Hartree potential  :   4
  | Found cutoff potl. onset [A], width [A], scale factor :    3.50000    1.50000    1.00000
  | Threshold for basis-dependent cutoff potential is   0.100000E-03
  | Found data for basic radial integration grid :    24 points, outermost radius =    5.000 A
  | Found multiplier for basic radial grid :   1
  | Found angular grid specification: user-specified.
  | Specified grid contains     5 separate shells.
  | Check grid settings after all constraints further below.
  | Found free-atom valence shell :  1 s   1.000
  | No ionic wave fns used. Skipping ion_occ.
  | Found hydrogenic basis function :  2 s   2.100
  | Found hydrogenic basis function :  2 p   3.500
  Species H                   : Missing cutoff potential type.
  Defaulting to exp(1/x)/(1-x)^2 type cutoff potential.
  Species H : No 'logarithmic' tag. Using default grid for free atom:
  | Default logarithmic grid data [bohr] : 0.1000E-03 0.1000E+03 0.1012E+01
  Species H : On-site basis accuracy parameter (for Gram-Schmidt orthonormalisation) not specified.
  Using default value basis_acc =  0.1000000E-03.
  Species H                   : Using default innermost maximum threshold i_radial=  2 for radial functions.
  Species H                   : Default cutoff onset for free atom density etc. : 0.35000000E+01 AA.
  Species H                   : Basic radial grid will be enhanced according to radial_multiplier =   1, to contain    24 grid points.
 
  Reading configuration options for species C                   .
  | Found nuclear charge :   6.0000
  | Found atomic mass :    12.0107000000000      amu
  | Found l_max for Hartree potential  :   4
  | Found cutoff potl. onset [A], width [A], scale factor :    3.50000    1.50000    1.00000
  | Threshold for basis-dependent cutoff potential is   0.100000E-03
  | Found data for basic radial integration grid :    34 points, outermost radius =    5.000 A
  | Found multiplier for basic radial grid :   1
  | Found angular grid specification: user-specified.
  | Specified grid contains     5 separate shells.
  | Check grid settings after all constraints further below.
  | Found free-atom valence shell :  2 s   2.000
  | Found free-atom valence shell :  2 p   2.000
  | No ionic wave fns used. Skipping ion_occ.
  | No ionic wave fns used. Skipping ion_occ.
  | Found hydrogenic basis function :  2 p   1.700
  | Found hydrogenic basis function :  3 d   6.000
  | Found hydrogenic basis function :  2 s   4.900
  Species C                   : Missing cutoff potential type.
  Defaulting to exp(1/x)/(1-x)^2 type cutoff potential.
  Species C : No 'logarithmic' tag. Using default grid for free atom:
  | Default logarithmic grid data [bohr] : 0.1000E-03 0.1000E+03 0.1012E+01
  Species C : On-site basis accuracy parameter (for Gram-Schmidt orthonormalisation) not specified.
  Using default value basis_acc =  0.1000000E-03.
  Species C                   : Using default innermost maximum threshold i_radial=  2 for radial functions.
  Species C                   : Default cutoff onset for free atom density etc. : 0.35000000E+01 AA.
  Species C                   : Basic radial grid will be enhanced according to radial_multiplier =   1, to contain    34 grid points.
 
  Reading configuration options for species N                   .
  | Found nuclear charge :   7.0000
  | Found atomic mass :    14.0067000000000      amu
  | Found l_max for Hartree potential  :   4
  | Found cutoff potl. onset [A], width [A], scale factor :    3.50000    1.50000    1.00000
  | Threshold for basis-dependent cutoff potential is   0.100000E-03
  | Found data for basic radial integration grid :    35 points, outermost radius =    5.000 A
  | Found multiplier for basic radial grid :   1
  | Found angular grid specification: user-specified.
  | Specified grid contains     5 separate shells.
  | Check grid settings after all constraints further below.
  | Found free-atom valence shell :  2 s   2.000
  | Found free-atom valence shell :  2 p   3.000
  | No ionic wave fns used. Skipping ion_occ.
  | No ionic wave fns used. Skipping ion_occ.
  | Found hydrogenic basis function :  2 p   1.800
  | Found hydrogenic basis function :  3 d   6.800
  | Found hydrogenic basis function :  3 s   5.800
  Species N                   : Missing cutoff potential type.
  Defaulting to exp(1/x)/(1-x)^2 type cutoff potential.
  Species N : No 'logarithmic' tag. Using default grid for free atom:
  | Default logarithmic grid data [bohr] : 0.1000E-03 0.1000E+03 0.1012E+01
  Species N : On-site basis accuracy parameter (for Gram-Schmidt orthonormalisation) not specified.
  Using default value basis_acc =  0.1000000E-03.
  Species N                   : Using default innermost maximum threshold i_radial=  2 for radial functions.
  Species N                   : Default cutoff onset for free atom density etc. : 0.35000000E+01 AA.
  Species N                   : Basic radial grid will be enhanced according to radial_multiplier =   1, to contain    35 grid points.
 
  Reading configuration options for species O                   .
  | Found nuclear charge :   8.0000
  | Found atomic mass :    15.9994000000000      amu
  | Found l_max for Hartree potential  :   4
  | Found cutoff potl. onset [A], width [A], scale factor :    3.50000    1.50000    1.00000
  | Threshold for basis-dependent cutoff potential is   0.100000E-03
  | Found data for basic radial integration grid :    36 points, outermost radius =    5.000 A
  | Found multiplier for basic radial grid :   1
  | Found angular grid specification: user-specified.
  | Specified grid contains     5 separate shells.
  | Check grid settings after all constraints further below.
  | Found free-atom valence shell :  2 s   2.000
  | Found free-atom valence shell :  2 p   4.000
  | No ionic wave fns used. Skipping ion_occ.
  | No ionic wave fns used. Skipping ion_occ.
  | Found hydrogenic basis function :  2 p   1.800
  | Found hydrogenic basis function :  3 d   7.600
  | Found hydrogenic basis function :  3 s   6.400
  Species O                   : Missing cutoff potential type.
  Defaulting to exp(1/x)/(1-x)^2 type cutoff potential.
  Species O : No 'logarithmic' tag. Using default grid for free atom:
  | Default logarithmic grid data [bohr] : 0.1000E-03 0.1000E+03 0.1012E+01
  Species O : On-site basis accuracy parameter (for Gram-Schmidt orthonormalisation) not specified.
  Using default value basis_acc =  0.1000000E-03.
  Species O                   : Using default innermost maximum threshold i_radial=  2 for radial functions.
  Species O                   : Default cutoff onset for free atom density etc. : 0.35000000E+01 AA.
  Species O                   : Basic radial grid will be enhanced according to radial_multiplier =   1, to contain    36 grid points.
 
  Finished reading input file 'control.in'. Consistency checks are next.
 
  MPI_IN_PLACE appears to work with this MPI implementation.
  | Keeping use_mpi_in_place .true. (see manual).
  Target number of points in a grid batch is not set. Defaulting to  100
  Method for grid partitioning is not set. Defaulting to parallel hash+maxmin partitioning.
  Batch size limit is not set. Defaulting to    200
  By default, will store active basis functions for each batch.
  If in need of memory, prune_basis_once .false. can be used to disable this option.
  communication_type for Hartree potential was not specified.
  Defaulting to calc_hartree .
  Pulay mixer: Number of initial linear mixing iterations not set.
  Defaulting to    0 iterations.
  Work space size for distributed Hartree potential not set.
  Defaulting to   0.200000E+03 MB.
  Algorithm-dependent basis array size parameters:
  | n_max_pulay                         :       10
  Presetting      1001 iterations before the initial mixing cycle
  is restarted anyway using the sc_init_iter criterion / keyword.
  Presetting a factor      1.000 between actual scf density residual
  and density convergence criterion sc_accuracy_rho below which sc_init_iter
  takes no effect.
  Geometry relaxation not requested: no relaxation will be performed.
  Handling of forces: Unphysical translation and rotation will be removed from forces.
  No accuracy limit for integral partition fn. given. Defaulting to  0.1000E-14.
  No threshold value for u(r) in integrations given. Defaulting to  0.1000E-05.
  No accuracy for occupation numbers given. Defaulting to  0.1000E-12.
  No threshold value for occupation numbers given. Defaulting to  0.0000E+00.
  No accuracy for fermi level given. Defaulting to  0.1000E-19.
  Maximum # of iterations to find E_F not set. Defaulting to  200.
  Preferred method for the eigenvalue solver ('KS_method') not specified in 'control.in'.
  Defaulting to serial version, 'lapack_fast'.
  Will not use alltoall communication since running on < 1024 CPUs.
  Threshold for basis singularities not set.
  Default threshold for basis singularities:  0.1000E-04
  partition_type (choice of integration weights) for integrals was not specified.
  | Using a version of the partition function of Stratmann and coworkers ('stratmann_smoother').
  | At each grid point, the set of atoms used to build the partition table is smoothly restricted to
  | only those atoms whose free-atom density would be non-zero at that grid point.
  Partitioning for Hartree potential was not defined. Using partition_type for integrals.
  | Adjusted default value of keyword multip_moments_threshold to:       0.10000000E-11
  | This value may affect high angular momentum components of the Hartree potential in periodic systems.
  No q(lm)/r^(l+1) cutoff set for long-range Hartree potential.
  | Using default value of  0.100000E-09 .
  | Verify using the multipole_threshold keyword.
  Defaulting to new monopole extrapolation.
  Density update method: automatic selection selected.
------------------------------------------------------------


------------------------------------------------------------
          Reading geometry description geometry.in.
------------------------------------------------------------
  Input structure read successfully.
  The structure contains       13 atoms,  and a total of         48.000 electrons.

  Input geometry:
  | No unit cell requested.
  | Atomic structure:
  |       Atom                x [A]            y [A]            z [A]
  |    1: Species C             0.00000000        0.00000000        0.00000000
  |    2: Species H             1.09300000        0.00000000        0.00000000
  |    3: Species N            -0.47961000        0.00000000       -1.41207000
  |    4: Species H            -1.42942000       -0.37305000       -1.43490000
  |    5: Species H            -0.46867000        0.95617000       -1.76098000
  |    6: Species C            -0.49584000        1.26211000        0.72868000
  |    7: Species H            -1.58789000        1.28919000        0.74431000
  |    8: Species H            -0.13407000        1.27425000        1.75947000
  |    9: Species H            -0.13407000        2.16087000        0.22380000
  |   10: Species C            -0.39425000       -1.28861000        0.74398000
  |   11: Species O            -0.10189000       -1.56493000        1.88303000
  |   12: Species O            -1.10210000       -2.13717000        0.06896000
  |   13: Species H            -0.52534000       -2.91341000        0.16786000
  |

  | The smallest distance between any two atoms is         0.97210177 AA.
  |
  | The first atom of this pair is atom number                     12 .
  | The second atom of this pair is atom number                    13 .

  Number of empty states per atom not set in control.in - providing a guess from actual geometry.
  | Total number of empty states used during s.c.f. cycle:       29
  If you use a very high smearing, use empty_states (per atom!) in control.in to increase this value.

  Structure-dependent array size parameters: 
  | Maximum number of distinct radial functions  :       21
  | Maximum number of basis functions            :      119
  | Number of Kohn-Sham states (occupied + empty):       53
------------------------------------------------------------

------------------------------------------------------------
          Preparing all fixed parts of the calculation.
------------------------------------------------------------
  Determining machine precision:
    2.225073858507201E-308
  Setting up grids for atomic and cluster calculations.

  Creating wave function, potential, and density for free atoms.

  Species: H

  List of occupied orbitals and eigenvalues:
    n    l              occ      energy [Ha]    energy [eV]
    1    0           1.0000        -0.237589        -6.4651


  Species: C

  List of occupied orbitals and eigenvalues:
    n    l              occ      energy [Ha]    energy [eV]
    1    0           2.0000       -10.038835      -273.1706
    2    0           2.0000        -0.502696       -13.6791
    2    1           2.0000        -0.191971        -5.2238


  Species: N

  List of occupied orbitals and eigenvalues:
    n    l              occ      energy [Ha]    energy [eV]
    1    0           2.0000       -14.128000      -384.4424
    2    0           2.0000        -0.681077       -18.5330
    2    1           3.0000        -0.259788        -7.0692


  Species: O

  List of occupied orbitals and eigenvalues:
    n    l              occ      energy [Ha]    energy [eV]
    1    0           2.0000       -18.898188      -514.2459
    2    0           2.0000        -0.878505       -23.9053
    2    1           4.0000        -0.331779        -9.0282

  Creating fixed part of basis set: Ionic, confined, hydrogenic.
 
  H                    hydrogenic:
 
  List of hydrogenic basis orbitals: 
    n    l      effective z      eigenvalue [eV]  inner max. [A]     outer max. [A]     outer radius [A]   
    2    0         2.100000       -14.9728           0.193243           1.317208           4.583499
    2    1         3.500000       -41.6669           0.602369           0.602369           3.723403
 
 
  C                    hydrogenic:
 
  List of hydrogenic basis orbitals: 
    n    l      effective z      eigenvalue [eV]  inner max. [A]     outer max. [A]     outer radius [A]   
    2    1         1.700000        -9.7616           1.230570           1.230570           4.607917
    3    2         6.000000       -54.4224           0.792453           0.792453           3.883070
    2    0         4.900000       -81.6679           0.082559           0.562749           3.078220
 
 
  N                    hydrogenic:
 
  List of hydrogenic basis orbitals: 
    n    l      effective z      eigenvalue [eV]  inner max. [A]     outer max. [A]     outer radius [A]   
    2    1         1.800000       -10.9749           1.177451           1.177451           4.573712
    3    2         6.800000       -69.9026           0.704619           0.704619           3.538137
    3    0         5.800000       -50.8545           0.067388           1.191934           4.250239
 
 
  O                    hydrogenic:
 
  List of hydrogenic basis orbitals: 
    n    l      effective z      eigenvalue [eV]  inner max. [A]     outer max. [A]     outer radius [A]   
    2    1         1.800000       -10.9749           1.164242           1.164242           4.578029
    3    2         7.600000       -87.3180           0.624125           0.624125           3.251020
    3    0         6.400000       -61.9207           0.061167           1.081902           4.001998
 

  Adding cutoff potential to free-atom effective potential.
  Creating atomic-like basis functions for current effective potential.

  Species H                   :

  List of atomic basis orbitals and eigenvalues:
    n    l      energy [Ha]    energy [eV]    outer radius [A]
    1    0        -0.237589        -6.4651       4.527807


  Species C                   :

  List of atomic basis orbitals and eigenvalues:
    n    l      energy [Ha]    energy [eV]    outer radius [A]
    1    0       -10.038835      -273.1706       1.934409
    2    0        -0.502696       -13.6791       4.496620
    2    1        -0.191971        -5.2238       4.551928


  Species N                   :

  List of atomic basis orbitals and eigenvalues:
    n    l      energy [Ha]    energy [eV]    outer radius [A]
    1    0       -14.128000      -384.4424       1.637919
    2    0        -0.681077       -18.5330       4.463241
    2    1        -0.259788        -7.0692       4.518138


  Species O                   :

  List of atomic basis orbitals and eigenvalues:
    n    l      energy [Ha]    energy [eV]    outer radius [A]
    1    0       -18.898188      -514.2459       1.415765
    2    0        -0.878505       -23.9053       4.413171
    2    1        -0.331779        -9.0282       4.522403

  Assembling full basis from fixed parts.
  | Species H :   atomic orbital   1 s accepted.
  | Species H :    hydro orbital   2 s accepted.
  | Species H :    hydro orbital   2 p accepted.
  | Species C :   atomic orbital   1 s accepted.
  | Species C :    hydro orbital   2 s accepted.
  | Species C :   atomic orbital   2 s accepted.
  | Species C :   atomic orbital   2 p accepted.
  | Species C :    hydro orbital   2 p accepted.
  | Species C :    hydro orbital   3 d accepted.
  | Species N :   atomic orbital   1 s accepted.
  | Species N :    hydro orbital   3 s accepted.
  | Species N :   atomic orbital   2 s accepted.
  | Species N :   atomic orbital   2 p accepted.
  | Species N :    hydro orbital   2 p accepted.
  | Species N :    hydro orbital   3 d accepted.
  | Species O :   atomic orbital   1 s accepted.
  | Species O :    hydro orbital   3 s accepted.
  | Species O :   atomic orbital   2 s accepted.
  | Species O :   atomic orbital   2 p accepted.
  | Species O :    hydro orbital   2 p accepted.
  | Species O :    hydro orbital   3 d accepted.
 
  Basis size parameters after reduction:
  | Total number of radial functions:       21
  | Total number of basis functions :      119
 
  Per-task memory consumption for arrays in subroutine allocate_ext:
  |           5.250512MB.
  Testing on-site integration grid accuracy.
  |  Species  Function  <phi|h_atom|phi> (log., in eV)  <phi|h_atom|phi> (rad., in eV)
           1        1                 -6.4663192853                 -6.4651273558
           1        2                 13.7111246313                 13.7170609718
           1        3                 25.2673269279                 25.2674696378
           2        4               -273.1705927641               -273.1705631568
           2        5                -10.7109323383                -10.7107120029
           2        6                 17.4381822266                 17.4352413244
           2        7                 -5.2255326521                 -5.2270484734
           2        8                  8.6835629259                  8.6603288385
           2        9                 27.4952418996                 27.4953360207
           3       10               -384.4424306495               -384.4423701208
           3       11                 12.5842251816                 12.5842222903
           3       12                -15.7264628251                -15.7264433455
           3       13                 -7.0696854293                 -7.0701769954
           3       14                  8.8090390882                  8.7901077751
           3       15                 35.9586762123                 35.9588528632
           4       16               -514.2458688638               -514.2457643834
           4       17                 15.1795651126                 15.1795290741
           4       18                -21.5359799773                -21.5360846186
           4       19                 -9.0283069236                 -9.0284644067
           4       20                  8.3027758564                  8.2834874195
           4       21                 45.8339351984                 45.8338762259

  Preparing densities etc. for the partition functions (integrals / Hartree potential).

  Preparations completed.
  max(cpu_time)          :      0.147 s.
  Wall clock time (cpu1) :      0.148 s.
------------------------------------------------------------

------------------------------------------------------------
          Begin self-consistency loop: Initialization.

          Date     :  20200710, Time     :  150953.232
------------------------------------------------------------

  Initializing index lists of integration centers etc. from given atomic structure:
  | Number of centers in hartree potential         :        13
  | Number of centers in hartree multipole         :        13
  | Number of centers in electron density summation:        13
  | Number of centers in basis integrals           :        13
  | Number of centers in integrals                 :        13
  | Number of centers in hamiltonian               :        13
  Partitioning the integration grid into batches with parallel hashing+maxmin method.
  | Number of batches:      955
  | Maximal batch size:     138
  | Minimal batch size:      66
  | Average batch size:      72.928
  | Standard deviation of batch sizes:      17.647

  Integration load balanced across     1 MPI tasks.
  Work distribution over tasks is as follows:
  Task     0 has      69646 integration points.
  Initializing partition tables, free-atom densities, potentials, etc. across the integration grid (initialize_grid_storage).
  | initialize_grid_storage: Actual outermost partition radius vs. multipole_radius_free
  | (-- VB: in principle, multipole_radius_free should be larger, hence this output)
  | Species        1: Confinement radius =              4.999999999999999 AA, multipole_radius_free =              5.054417573612229 AA.
  | Species        1: outer_partition_radius set to              5.054417573612229 AA .
  | Species        2: Confinement radius =              4.999999999999999 AA, multipole_radius_free =              5.019602836301480 AA.
  | Species        2: outer_partition_radius set to              5.019602836301480 AA .
  | Species        3: Confinement radius =              4.999999999999999 AA, multipole_radius_free =              5.043624274424571 AA.
  | Species        3: outer_partition_radius set to              5.043624274424571 AA .
  | Species        4: Confinement radius =              4.999999999999999 AA, multipole_radius_free =              5.048384829883283 AA.
  | Species        4: outer_partition_radius set to              5.048384829883283 AA .
  | Original list of interatomic distances with          13 x         13 entries is created.
  | Net number of integration points:    69646
  | of which are non-zero points    :    59517
  Renormalizing the initial density to the exact electron count on the 3D integration grid.
  | Initial density: Formal number of electrons (from input files) :      48.0000000000
  | Integrated number of electrons on 3D grid     :      47.9998750753
  | Charge integration error                      :      -0.0001249247
  | Normalization factor for density and gradient :       1.0000026026
  Obtaining max. number of non-zero basis functions in each batch (get_n_compute_maxes).
  | Maximal number of non-zero basis functions:      119 in task     0
  Selecting the method for density update.
  Loop over occupied states selected for charge density update.
  Allocating        0.050 MB for KS_eigenvector
  Integrating Hamiltonian matrix: batch-based integration.
  Time summed over all CPUs for integration: real work        0.491 s, elapsed        0.491 s
  Integrating overlap matrix.
  Time summed over all CPUs for integration: real work        0.210 s, elapsed        0.210 s

  Updating Kohn-Sham eigenvalues and eigenvectors using ELSI and the ELPA eigensolver.
  Overlap matrix is nonsingular
  | Lowest eigenvalue of overlap  :  0.53E-02
  | Highest eigenvalue of overlap :  0.62E+01
  Finished singularity check of overlap matrix
  | Time :     0.002 s
  Finished Cholesky decomposition
  | Time :     0.000 s
  Finished transformation to standard eigenproblem
  | Time :     0.000 s
  Starting LAPACK eigensolver
  Finished solving standard eigenproblem
  | Time :     0.002 s
  Finished back-transformation of eigenvectors
  | Time :     0.000 s

  Obtaining occupation numbers and chemical potential using ELSI.
  | Chemical potential (Fermi level):    -9.22542814eV
  Writing Kohn-Sham eigenvalues.

  State    Occupation    Eigenvalue [Ha]    Eigenvalue [eV]
      1       2.00000         -19.007879         -517.23070
      2       2.00000         -18.977682         -516.40900
      3       2.00000         -14.245795         -387.64780
      4       2.00000         -10.166829         -276.65349
      5       2.00000         -10.141257         -275.95763
      6       2.00000         -10.132031         -275.70660
      7       2.00000          -1.185857          -32.26882
      8       2.00000          -1.094904          -29.79385
      9       2.00000          -0.992099          -26.99639
     10       2.00000          -0.858505          -23.36110
     11       2.00000          -0.760748          -20.70100
     12       2.00000          -0.684418          -18.62397
     13       2.00000          -0.623707          -16.97193
     14       2.00000          -0.601706          -16.37325
     15       2.00000          -0.580382          -15.79300
     16       2.00000          -0.569437          -15.49517
     17       2.00000          -0.551085          -14.99578
     18       2.00000          -0.539972          -14.69339
     19       2.00000          -0.527052          -14.34181
     20       2.00000          -0.492687          -13.40669
     21       2.00000          -0.465762          -12.67403
     22       2.00000          -0.427878          -11.64314
     23       2.00000          -0.399310          -10.86577
     24       2.00000          -0.391055          -10.64116
     25       0.00000          -0.159555           -4.34171
     26       0.00000          -0.060088           -1.63508
     27       0.00000          -0.027081           -0.73692
     28       0.00000          -0.025988           -0.70717
     29       0.00000          -0.003199           -0.08705
     30       0.00000           0.008216            0.22357
     31       0.00000           0.026955            0.73349
     32       0.00000           0.036801            1.00139
     33       0.00000           0.041892            1.13994
     34       0.00000           0.059530            1.61989
     35       0.00000           0.080905            2.20153
     36       0.00000           0.133683            3.63771
     37       0.00000           0.161299            4.38917
     38       0.00000           0.204089            5.55354
     39       0.00000           0.212196            5.77414
     40       0.00000           0.227537            6.19160
     41       0.00000           0.253820            6.90681
     42       0.00000           0.277396            7.54834
     43       0.00000           0.293072            7.97489
     44       0.00000           0.312034            8.49087
     45       0.00000           0.325686            8.86238
     46       0.00000           0.346031            9.41599
     47       0.00000           0.377818           10.28094
     48       0.00000           0.386022           10.50418
     49       0.00000           0.425459           11.57734
     50       0.00000           0.472866           12.86734
     51       0.00000           0.525506           14.29975
     52       0.00000           0.551047           14.99476
     53       0.00000           0.579112           15.75844

  Highest occupied state (VBM) at    -10.64115554 eV
  | Occupation number:      2.00000000

  Lowest unoccupied state (CBM) at    -4.34171255 eV
  | Occupation number:      0.00000000

  Overall HOMO-LUMO gap:      6.29944299 eV.
  Calculating total energy contributions from superposition of free atom densities.

  Total energy components:
  | Sum of eigenvalues            :        -188.83607054 Ha       -5138.49092284 eV
  | XC energy correction          :         -41.78741581 Ha       -1137.09343898 eV
  | XC potential correction       :          53.71823581 Ha        1461.74756936 eV
  | Free-atom electrostatic energy:        -146.85681703 Ha       -3996.17731478 eV
  | Hartree energy correction     :           0.00000000 Ha           0.00000000 eV
  | vdW energy correction         :           0.00000000 Ha           0.00000000 eV
  | Entropy correction            :           0.00000000 Ha           0.00000000 eV
  | ---------------------------
  | Total energy                  :        -323.76206757 Ha       -8810.01410725 eV
  | Total energy, T -> 0          :        -323.76206757 Ha       -8810.01410725 eV  <-- do not rely on this value for anything but (periodic) metals
  | Electronic free energy        :        -323.76206757 Ha       -8810.01410725 eV

  Derived energy quantities:
  | Kinetic energy                :         320.49170152 Ha        8721.02291899 eV
  | Electrostatic energy          :        -602.46635327 Ha      -16393.94358726 eV
  | Energy correction for multipole
  | error in Hartree potential    :           0.00000000 Ha           0.00000000 eV
  | Sum of eigenvalues per atom                           :        -395.26853253 eV
  | Total energy (T->0) per atom                          :        -677.69339287 eV  <-- do not rely on this value for anything but (periodic) metals
  | Electronic free energy per atom                       :        -677.69339287 eV
  Initialize hartree_potential_storage
  Max. number of atoms included in rho_multipole:           13

  End scf initialization - timings             :  max(cpu_time)    wall_clock(cpu1)
  | Time for scf. initialization               :        1.144 s           1.145 s
  | Boundary condition initialization          :        0.000 s           0.000 s
  | Integration                                :        0.701 s           0.701 s
  | Solution of K.-S. eqns.                    :        0.004 s           0.005 s
  | Grid partitioning                          :        0.112 s           0.112 s
  | Preloading free-atom quantities on grid    :        0.002 s           0.002 s
  | Free-atom superposition energy             :        0.085 s           0.085 s
  | Total energy evaluation                    :        0.000 s           0.000 s

  Partial memory accounting:
  | Current value for overall tracked memory usage on task 0  :           0.165 MB
  | Peak value for overall tracked memory usage on task 0     :           0.676 MB after allocating wave
  | Largest tracked array allocation on task 0 so far         :           0.131 MB  when allocating H_times_psi
  Note:  These values currently only include a subset of arrays which are explicitly tracked.
  The "true" memory usage will be greater.
------------------------------------------------------------

------------------------------------------------------------
          Begin self-consistency iteration #    1

  Date     :  20200710, Time     :  150954.378
------------------------------------------------------------
  Evaluating new KS density.
  Integration grid: deviation in total charge (<rho> - N_e) =   2.131628E-14
  Pulay mixing of updated and previous charge densities.

  Evaluating partitioned Hartree potential by multipole expansion.
  | Analytical far-field extrapolation by fixed multipoles:
  | Hartree multipole sum: apparent total charge =  -0.236874E-03
  Summing up the Hartree potential.
  Time summed over all CPUs for potential: real work        0.282 s, elapsed        0.282 s
  | RMS charge density error from multipole expansion :   0.587464E-02

  Integrating Hamiltonian matrix: batch-based integration.
  Time summed over all CPUs for integration: real work        0.492 s, elapsed        0.492 s

  Updating Kohn-Sham eigenvalues and eigenvectors using ELSI and the ELPA eigensolver.
  Finished Cholesky decomposition
  | Time :     0.000 s
  Finished transformation to standard eigenproblem
  | Time :     0.000 s
  Starting LAPACK eigensolver
  Finished solving standard eigenproblem
  | Time :     0.002 s
  Finished back-transformation of eigenvectors
  | Time :     0.000 s

  Obtaining occupation numbers and chemical potential using ELSI.
  | Chemical potential (Fermi level):    -8.03615421eV
  Writing Kohn-Sham eigenvalues.

  State    Occupation    Eigenvalue [Ha]    Eigenvalue [eV]
      1       2.00000         -18.900696         -514.31411
      2       2.00000         -18.839985         -512.66209
      3       2.00000         -14.094407         -383.52833
      4       2.00000         -10.117867         -275.32118
      5       2.00000         -10.062097         -273.80359
      6       2.00000         -10.031111         -272.96042
      7       2.00000          -1.136446          -30.92427
      8       2.00000          -1.032896          -28.10652
      9       2.00000          -0.920892          -25.05874
     10       2.00000          -0.791986          -21.55103
     11       2.00000          -0.709481          -19.30595
     12       2.00000          -0.638436          -17.37273
     13       2.00000          -0.567479          -15.44188
     14       2.00000          -0.540600          -14.71048
     15       2.00000          -0.523060          -14.23319
     16       2.00000          -0.509606          -13.86708
     17       2.00000          -0.491361          -13.37060
     18       2.00000          -0.476387          -12.96314
     19       2.00000          -0.465060          -12.65493
     20       2.00000          -0.436654          -11.88195
     21       2.00000          -0.407710          -11.09436
     22       2.00000          -0.370205          -10.07378
     23       2.00000          -0.329331           -8.96155
     24       2.00000          -0.314063           -8.54608
     25       0.00000          -0.124969           -3.40057
     26       0.00000          -0.035101           -0.95515
     27       0.00000          -0.004451           -0.12112
     28       0.00000           0.016672            0.45368
     29       0.00000           0.027836            0.75746
     30       0.00000           0.045817            1.24674
     31       0.00000           0.061800            1.68167
     32       0.00000           0.075882            2.06487
     33       0.00000           0.083728            2.27836
     34       0.00000           0.101697            2.76732
     35       0.00000           0.121864            3.31608
     36       0.00000           0.161036            4.38202
     37       0.00000           0.187107            5.09144
     38       0.00000           0.233428            6.35189
     39       0.00000           0.241622            6.57488
     40       0.00000           0.265368            7.22104
     41       0.00000           0.288524            7.85115
     42       0.00000           0.311281            8.47038
     43       0.00000           0.330233            8.98609
     44       0.00000           0.350191            9.52918
     45       0.00000           0.365258            9.93917
     46       0.00000           0.380703           10.35945
     47       0.00000           0.421252           11.46284
     48       0.00000           0.425057           11.56639
     49       0.00000           0.457828           12.45813
     50       0.00000           0.510819           13.90010
     51       0.00000           0.565007           15.37461
     52       0.00000           0.582291           15.84493
     53       0.00000           0.619695           16.86276

  Highest occupied state (VBM) at     -8.54607778 eV
  | Occupation number:      2.00000000

  Lowest unoccupied state (CBM) at    -3.40057340 eV
  | Occupation number:      0.00000000

  Overall HOMO-LUMO gap:      5.14550439 eV.

  Total energy components:
  | Sum of eigenvalues            :        -185.41562899 Ha       -5045.41597288 eV
  | XC energy correction          :         -42.11706912 Ha       -1146.06376196 eV
  | XC potential correction       :          54.14700676 Ha        1473.41502039 eV
  | Free-atom electrostatic energy:        -146.85681703 Ha       -3996.17731478 eV
  | Hartree energy correction     :          -3.33630775 Ha         -90.78555312 eV
  | vdW energy correction         :           0.00000000 Ha           0.00000000 eV
  | Entropy correction            :           0.00000000 Ha           0.00000000 eV
  | ---------------------------
  | Total energy                  :        -323.57881615 Ha       -8805.02758234 eV
  | Total energy, T -> 0          :        -323.57881615 Ha       -8805.02758234 eV  <-- do not rely on this value for anything but (periodic) metals
  | Electronic free energy        :        -323.57881615 Ha       -8805.02758234 eV

  Derived energy quantities:
  | Kinetic energy                :         322.29031700 Ha        8769.96573663 eV
  | Electrostatic energy          :        -603.75206403 Ha      -16428.92955701 eV
  | Energy correction for multipole
  | error in Hartree potential    :           0.01202482 Ha           0.32721205 eV
  | Sum of eigenvalues per atom                           :        -388.10892099 eV
  | Total energy (T->0) per atom                          :        -677.30981403 eV  <-- do not rely on this value for anything but (periodic) metals
  | Electronic free energy per atom                       :        -677.30981403 eV

  Self-consistency convergence accuracy:
  | Change of charge density      :  0.5868E+00
  | Change of sum of eigenvalues  :  0.9307E+02 eV
  | Change of total energy        :  0.4987E+01 eV

  End self-consistency iteration #     1       :  max(cpu_time)    wall_clock(cpu1)
  | Time for this iteration                    :        1.182 s           1.183 s
  | Charge density update                      :        0.391 s           0.390 s
  | Density mixing                             :        0.005 s           0.006 s
  | Hartree multipole update                   :        0.009 s           0.009 s
  | Hartree multipole summation                :        0.283 s           0.283 s
  | Integration                                :        0.492 s           0.492 s
  | Solution of K.-S. eqns.                    :        0.002 s           0.002 s
  | Total energy evaluation                    :        0.000 s           0.000 s

  Partial memory accounting:
  | Current value for overall tracked memory usage on task 0  :           0.165 MB
  | Peak value for overall tracked memory usage on task 0     :           0.691 MB after allocating gradient_basis_wave
  | Largest tracked array allocation on task 0 so far         :           0.394 MB  when allocating gradient_basis_wave
  Note:  These values currently only include a subset of arrays which are explicitly tracked.
  The "true" memory usage will be greater.
------------------------------------------------------------

------------------------------------------------------------
          Begin self-consistency iteration #    2

  Date     :  20200710, Time     :  150955.562
------------------------------------------------------------
  Evaluating new KS density.
  Integration grid: deviation in total charge (<rho> - N_e) =   7.105427E-15
  Pulay mixing of updated and previous charge densities.

  Evaluating partitioned Hartree potential by multipole expansion.
  | Analytical far-field extrapolation by fixed multipoles:
  | Hartree multipole sum: apparent total charge =  -0.379566E-03
  Summing up the Hartree potential.
  Time summed over all CPUs for potential: real work        0.282 s, elapsed        0.282 s
  | RMS charge density error from multipole expansion :   0.139939E-01

  Integrating Hamiltonian matrix: batch-based integration.
  Time summed over all CPUs for integration: real work        0.501 s, elapsed        0.501 s

  Updating Kohn-Sham eigenvalues and eigenvectors using ELSI and the ELPA eigensolver.
  Finished Cholesky decomposition
  | Time :     0.000 s
  Finished transformation to standard eigenproblem
  | Time :     0.000 s
  Starting LAPACK eigensolver
  Finished solving standard eigenproblem
  | Time :     0.002 s
  Finished back-transformation of eigenvectors
  | Time :     0.000 s

  Obtaining occupation numbers and chemical potential using ELSI.
  | Chemical potential (Fermi level):    -2.58617806eV
  Highest occupied state (VBM) at     -6.41130181 eV
  | Occupation number:      2.00000000

  Lowest unoccupied state (CBM) at    -2.20866953 eV
  | Occupation number:      0.00000000

  Overall HOMO-LUMO gap:      4.20263228 eV.

  Checking to see if s.c.f. parameters should be adjusted.

  Total energy components:
  | Sum of eigenvalues            :        -181.81012091 Ha       -4947.30510612 eV
  | XC energy correction          :         -42.47929352 Ha       -1155.92038922 eV
  | XC potential correction       :          54.61660002 Ha        1486.19330330 eV
  | Free-atom electrostatic energy:        -146.85681703 Ha       -3996.17731478 eV
  | Hartree energy correction     :          -6.96993015 Ha        -189.66144932 eV
  | vdW energy correction         :           0.00000000 Ha           0.00000000 eV
  | Entropy correction            :           0.00000000 Ha           0.00000000 eV
  | ---------------------------
  | Total energy                  :        -323.49956159 Ha       -8802.87095613 eV
  | Total energy, T -> 0          :        -323.49956159 Ha       -8802.87095613 eV  <-- do not rely on this value for anything but (periodic) metals
  | Electronic free energy        :        -323.49956159 Ha       -8802.87095613 eV

  Derived energy quantities:
  | Kinetic energy                :         323.61844951 Ha        8806.10606093 eV
  | Electrostatic energy          :        -604.63871759 Ha      -16453.05662785 eV
  | Energy correction for multipole
  | error in Hartree potential    :           0.02663596 Ha           0.72480124 eV
  | Sum of eigenvalues per atom                           :        -380.56193124 eV
  | Total energy (T->0) per atom                          :        -677.14391970 eV  <-- do not rely on this value for anything but (periodic) metals
  | Electronic free energy per atom                       :        -677.14391970 eV

  Self-consistency convergence accuracy:
  | Change of charge density      :  0.3666E+00
  | Change of sum of eigenvalues  :  0.9811E+02 eV
  | Change of total energy        :  0.2157E+01 eV

  End self-consistency iteration #     2       :  max(cpu_time)    wall_clock(cpu1)
  | Time for this iteration                    :        1.179 s           1.186 s
  | Charge density update                      :        0.384 s           0.383 s
  | Density mixing                             :        0.007 s           0.007 s
  | Hartree multipole update                   :        0.009 s           0.009 s
  | Hartree multipole summation                :        0.283 s           0.283 s
  | Integration                                :        0.494 s           0.502 s
  | Solution of K.-S. eqns.                    :        0.002 s           0.002 s
  | Total energy evaluation                    :        0.000 s           0.000 s

  Partial memory accounting:
  | Current value for overall tracked memory usage on task 0  :           0.166 MB
  | Peak value for overall tracked memory usage on task 0     :           0.691 MB after allocating gradient_basis_wave
  | Largest tracked array allocation on task 0 so far         :           0.394 MB  when allocating gradient_basis_wave
  Note:  These values currently only include a subset of arrays which are explicitly tracked.
  The "true" memory usage will be greater.
------------------------------------------------------------

------------------------------------------------------------
          Begin self-consistency iteration #    3

  Date     :  20200710, Time     :  150956.749
------------------------------------------------------------
  Evaluating new KS density.
  Integration grid: deviation in total charge (<rho> - N_e) =  -2.131628E-14
  Pulay mixing of updated and previous charge densities.

  Evaluating partitioned Hartree potential by multipole expansion.
  | Analytical far-field extrapolation by fixed multipoles:
  | Hartree multipole sum: apparent total charge =  -0.477659E-03
  Summing up the Hartree potential.
  Time summed over all CPUs for potential: real work        0.283 s, elapsed        0.283 s
  | RMS charge density error from multipole expansion :   0.220701E-01

  Integrating Hamiltonian matrix: batch-based integration.
  Time summed over all CPUs for integration: real work        0.492 s, elapsed        0.492 s

  Updating Kohn-Sham eigenvalues and eigenvectors using ELSI and the ELPA eigensolver.
  Finished Cholesky decomposition
  | Time :     0.000 s
  Finished transformation to standard eigenproblem
  | Time :     0.000 s
  Starting LAPACK eigensolver
  Finished solving standard eigenproblem
  | Time :     0.001 s
  Finished back-transformation of eigenvectors
  | Time :     0.000 s

  Obtaining occupation numbers and chemical potential using ELSI.
  | Chemical potential (Fermi level):    -2.07303134eV
  Highest occupied state (VBM) at     -5.71766515 eV
  | Occupation number:      2.00000000

  Lowest unoccupied state (CBM) at    -1.55669703 eV
  | Occupation number:      0.00000000

  Overall HOMO-LUMO gap:      4.16096811 eV.

  Total energy components:
  | Sum of eigenvalues            :        -180.53653785 Ha       -4912.64914778 eV
  | XC energy correction          :         -42.62803958 Ha       -1159.96797536 eV
  | XC potential correction       :          54.80621827 Ha        1491.35307832 eV
  | Free-atom electrostatic energy:        -146.85681703 Ha       -3996.17731478 eV
  | Hartree energy correction     :          -8.27177969 Ha        -225.08657756 eV
  | vdW energy correction         :           0.00000000 Ha           0.00000000 eV
  | Entropy correction            :           0.00000000 Ha           0.00000000 eV
  | ---------------------------
  | Total energy                  :        -323.48695588 Ha       -8802.52793716 eV
  | Total energy, T -> 0          :        -323.48695588 Ha       -8802.52793716 eV  <-- do not rely on this value for anything but (periodic) metals
  | Electronic free energy        :        -323.48695588 Ha       -8802.52793716 eV

  Derived energy quantities:
  | Kinetic energy                :         323.18022494 Ha        8794.18136356 eV
  | Electrostatic energy          :        -604.03914124 Ha      -16436.74132536 eV
  | Energy correction for multipole
  | error in Hartree potential    :           0.03780206 Ha           1.02864630 eV
  | Sum of eigenvalues per atom                           :        -377.89608829 eV
  | Total energy (T->0) per atom                          :        -677.11753363 eV  <-- do not rely on this value for anything but (periodic) metals
  | Electronic free energy per atom                       :        -677.11753363 eV

  Self-consistency convergence accuracy:
  | Change of charge density      :  0.2042E+00
  | Change of sum of eigenvalues  :  0.3466E+02 eV
  | Change of total energy        :  0.3430E+00 eV

  End self-consistency iteration #     3       :  max(cpu_time)    wall_clock(cpu1)
  | Time for this iteration                    :        1.178 s           1.179 s
  | Charge density update                      :        0.384 s           0.384 s
  | Density mixing                             :        0.008 s           0.008 s
  | Hartree multipole update                   :        0.009 s           0.008 s
  | Hartree multipole summation                :        0.283 s           0.284 s
  | Integration                                :        0.492 s           0.491 s
  | Solution of K.-S. eqns.                    :        0.002 s           0.003 s
  | Total energy evaluation                    :        0.000 s           0.000 s

  Partial memory accounting:
  | Current value for overall tracked memory usage on task 0  :           0.166 MB
  | Peak value for overall tracked memory usage on task 0     :           0.692 MB after allocating gradient_basis_wave
  | Largest tracked array allocation on task 0 so far         :           0.394 MB  when allocating gradient_basis_wave
  Note:  These values currently only include a subset of arrays which are explicitly tracked.
  The "true" memory usage will be greater.
------------------------------------------------------------

------------------------------------------------------------
          Begin self-consistency iteration #    4

  Date     :  20200710, Time     :  150957.929
------------------------------------------------------------
  Evaluating new KS density.
  Integration grid: deviation in total charge (<rho> - N_e) =  -3.552714E-14
  Pulay mixing of updated and previous charge densities.

  Evaluating partitioned Hartree potential by multipole expansion.
  | Analytical far-field extrapolation by fixed multipoles:
  | Hartree multipole sum: apparent total charge =  -0.509656E-03
  Summing up the Hartree potential.
  Time summed over all CPUs for potential: real work        0.282 s, elapsed        0.282 s
  | RMS charge density error from multipole expansion :   0.254354E-01

  Integrating Hamiltonian matrix: batch-based integration.
  Time summed over all CPUs for integration: real work        0.490 s, elapsed        0.490 s

  Updating Kohn-Sham eigenvalues and eigenvectors using ELSI and the ELPA eigensolver.
  Finished Cholesky decomposition
  | Time :     0.000 s
  Finished transformation to standard eigenproblem
  | Time :     0.000 s
  Starting LAPACK eigensolver
  Finished solving standard eigenproblem
  | Time :     0.002 s
  Finished back-transformation of eigenvectors
  | Time :     0.000 s

  Obtaining occupation numbers and chemical potential using ELSI.
  | Chemical potential (Fermi level):    -1.97889389eV
  Highest occupied state (VBM) at     -5.56517374 eV
  | Occupation number:      2.00000000

  Lowest unoccupied state (CBM) at    -1.47023263 eV
  | Occupation number:      0.00000000

  Overall HOMO-LUMO gap:      4.09494111 eV.

  Total energy components:
  | Sum of eigenvalues            :        -180.38778933 Ha       -4908.60149464 eV
  | XC energy correction          :         -42.66562037 Ha       -1160.99060077 eV
  | XC potential correction       :          54.85355353 Ha        1492.64113622 eV
  | Free-atom electrostatic energy:        -146.85681703 Ha       -3996.17731478 eV
  | Hartree energy correction     :          -8.42940519 Ha        -229.37578579 eV
  | vdW energy correction         :           0.00000000 Ha           0.00000000 eV
  | Entropy correction            :           0.00000000 Ha           0.00000000 eV
  | ---------------------------
  | Total energy                  :        -323.48607840 Ha       -8802.50405975 eV
  | Total energy, T -> 0          :        -323.48607840 Ha       -8802.50405975 eV  <-- do not rely on this value for anything but (periodic) metals
  | Electronic free energy        :        -323.48607840 Ha       -8802.50405975 eV

  Derived energy quantities:
  | Kinetic energy                :         322.80536454 Ha        8783.98089327 eV
  | Electrostatic energy          :        -603.62582258 Ha      -16425.49435226 eV
  | Energy correction for multipole
  | error in Hartree potential    :           0.04200681 Ha           1.14306355 eV
  | Sum of eigenvalues per atom                           :        -377.58473036 eV
  | Total energy (T->0) per atom                          :        -677.11569690 eV  <-- do not rely on this value for anything but (periodic) metals
  | Electronic free energy per atom                       :        -677.11569690 eV

  Self-consistency convergence accuracy:
  | Change of charge density      :  0.6397E-01
  | Change of sum of eigenvalues  :  0.4048E+01 eV
  | Change of total energy        :  0.2388E-01 eV

  End self-consistency iteration #     4       :  max(cpu_time)    wall_clock(cpu1)
  | Time for this iteration                    :        1.177 s           1.177 s
  | Charge density update                      :        0.383 s           0.383 s
  | Density mixing                             :        0.010 s           0.010 s
  | Hartree multipole update                   :        0.009 s           0.008 s
  | Hartree multipole summation                :        0.283 s           0.283 s
  | Integration                                :        0.490 s           0.491 s
  | Solution of K.-S. eqns.                    :        0.002 s           0.002 s
  | Total energy evaluation                    :        0.000 s           0.000 s

  Partial memory accounting:
  | Current value for overall tracked memory usage on task 0  :           0.166 MB
  | Peak value for overall tracked memory usage on task 0     :           0.692 MB after allocating gradient_basis_wave
  | Largest tracked array allocation on task 0 so far         :           0.394 MB  when allocating gradient_basis_wave
  Note:  These values currently only include a subset of arrays which are explicitly tracked.
  The "true" memory usage will be greater.
------------------------------------------------------------

------------------------------------------------------------
          Begin self-consistency iteration #    5

  Date     :  20200710, Time     :  150959.107
------------------------------------------------------------
  Evaluating new KS density.
  Integration grid: deviation in total charge (<rho> - N_e) =   1.421085E-14
  Pulay mixing of updated and previous charge densities.

  Evaluating partitioned Hartree potential by multipole expansion.
  | Analytical far-field extrapolation by fixed multipoles:
  | Hartree multipole sum: apparent total charge =  -0.503074E-03
  Summing up the Hartree potential.
  Time summed over all CPUs for potential: real work        0.282 s, elapsed        0.282 s
  | RMS charge density error from multipole expansion :   0.251924E-01

  Integrating Hamiltonian matrix: batch-based integration.
  Time summed over all CPUs for integration: real work        0.490 s, elapsed        0.490 s

  Updating Kohn-Sham eigenvalues and eigenvectors using ELSI and the ELPA eigensolver.
  Finished Cholesky decomposition
  | Time :     0.000 s
  Finished transformation to standard eigenproblem
  | Time :     0.000 s
  Starting LAPACK eigensolver
  Finished solving standard eigenproblem
  | Time :     0.001 s
  Finished back-transformation of eigenvectors
  | Time :     0.000 s

  Obtaining occupation numbers and chemical potential using ELSI.
  | Chemical potential (Fermi level):    -2.03081734eV
  Highest occupied state (VBM) at     -5.64316914 eV
  | Occupation number:      2.00000000

  Lowest unoccupied state (CBM) at    -1.55740748 eV
  | Occupation number:      0.00000000

  Overall HOMO-LUMO gap:      4.08576167 eV.

  Total energy components:
  | Sum of eigenvalues            :        -180.59096698 Ha       -4914.13023982 eV
  | XC energy correction          :         -42.64084349 Ha       -1160.31638765 eV
  | XC potential correction       :          54.82141380 Ha        1491.76656987 eV
  | Free-atom electrostatic energy:        -146.85681703 Ha       -3996.17731478 eV
  | Hartree energy correction     :          -8.21857610 Ha        -223.63883427 eV
  | vdW energy correction         :           0.00000000 Ha           0.00000000 eV
  | Entropy correction            :           0.00000000 Ha           0.00000000 eV
  | ---------------------------
  | Total energy                  :        -323.48578980 Ha       -8802.49620666 eV
  | Total energy, T -> 0          :        -323.48578980 Ha       -8802.49620666 eV  <-- do not rely on this value for anything but (periodic) metals
  | Electronic free energy        :        -323.48578980 Ha       -8802.49620666 eV

  Derived energy quantities:
  | Kinetic energy                :         322.68904221 Ha        8780.81560140 eV
  | Electrostatic energy          :        -603.53398852 Ha      -16422.99542041 eV
  | Energy correction for multipole
  | error in Hartree potential    :           0.04137701 Ha           1.12592563 eV
  | Sum of eigenvalues per atom                           :        -378.01001845 eV
  | Total energy (T->0) per atom                          :        -677.11509282 eV  <-- do not rely on this value for anything but (periodic) metals
  | Electronic free energy per atom                       :        -677.11509282 eV

  Self-consistency convergence accuracy:
  | Change of charge density      :  0.2012E-01
  | Change of sum of eigenvalues  : -0.5529E+01 eV
  | Change of total energy        :  0.7853E-02 eV

  End self-consistency iteration #     5       :  max(cpu_time)    wall_clock(cpu1)
  | Time for this iteration                    :        1.178 s           1.179 s
  | Charge density update                      :        0.383 s           0.383 s
  | Density mixing                             :        0.011 s           0.011 s
  | Hartree multipole update                   :        0.009 s           0.009 s
  | Hartree multipole summation                :        0.282 s           0.282 s
  | Integration                                :        0.491 s           0.491 s
  | Solution of K.-S. eqns.                    :        0.002 s           0.002 s
  | Total energy evaluation                    :        0.000 s           0.000 s

  Partial memory accounting:
  | Current value for overall tracked memory usage on task 0  :           0.166 MB
  | Peak value for overall tracked memory usage on task 0     :           0.692 MB after allocating gradient_basis_wave
  | Largest tracked array allocation on task 0 so far         :           0.394 MB  when allocating gradient_basis_wave
  Note:  These values currently only include a subset of arrays which are explicitly tracked.
  The "true" memory usage will be greater.
------------------------------------------------------------

------------------------------------------------------------
          Begin self-consistency iteration #    6

  Date     :  20200710, Time     :  151000.286
------------------------------------------------------------
  Evaluating new KS density.
  Integration grid: deviation in total charge (<rho> - N_e) =  -2.842171E-14
  Pulay mixing of updated and previous charge densities.

  Evaluating partitioned Hartree potential by multipole expansion.
  | Analytical far-field extrapolation by fixed multipoles:
  | Hartree multipole sum: apparent total charge =  -0.506848E-03
  Summing up the Hartree potential.
  Time summed over all CPUs for potential: real work        0.282 s, elapsed        0.282 s
  | RMS charge density error from multipole expansion :   0.256365E-01

  Integrating Hamiltonian matrix: batch-based integration.
  Time summed over all CPUs for integration: real work        0.491 s, elapsed        0.491 s

  Updating Kohn-Sham eigenvalues and eigenvectors using ELSI and the ELPA eigensolver.
  Finished Cholesky decomposition
  | Time :     0.000 s
  Finished transformation to standard eigenproblem
  | Time :     0.000 s
  Starting LAPACK eigensolver
  Finished solving standard eigenproblem
  | Time :     0.001 s
  Finished back-transformation of eigenvectors
  | Time :     0.000 s

  Obtaining occupation numbers and chemical potential using ELSI.
  | Chemical potential (Fermi level):    -2.01708878eV
  Highest occupied state (VBM) at     -5.60294994 eV
  | Occupation number:      2.00000000

  Lowest unoccupied state (CBM) at    -1.56444541 eV
  | Occupation number:      0.00000000

  Overall HOMO-LUMO gap:      4.03850453 eV.

  Total energy components:
  | Sum of eigenvalues            :        -180.57981267 Ha       -4913.82671541 eV
  | XC energy correction          :         -42.64138598 Ha       -1160.33114958 eV
  | XC potential correction       :          54.82209237 Ha        1491.78503456 eV
  | Free-atom electrostatic energy:        -146.85681703 Ha       -3996.17731478 eV
  | Hartree energy correction     :          -8.22982745 Ha        -223.94499921 eV
  | vdW energy correction         :           0.00000000 Ha           0.00000000 eV
  | Entropy correction            :           0.00000000 Ha           0.00000000 eV
  | ---------------------------
  | Total energy                  :        -323.48575077 Ha       -8802.49514441 eV
  | Total energy, T -> 0          :        -323.48575077 Ha       -8802.49514441 eV  <-- do not rely on this value for anything but (periodic) metals
  | Electronic free energy        :        -323.48575077 Ha       -8802.49514441 eV

  Derived energy quantities:
  | Kinetic energy                :         322.61643558 Ha        8778.83987468 eV
  | Electrostatic energy          :        -603.46080037 Ha      -16421.00386952 eV
  | Energy correction for multipole
  | error in Hartree potential    :           0.04180824 Ha           1.13766010 eV
  | Sum of eigenvalues per atom                           :        -377.98667042 eV
  | Total energy (T->0) per atom                          :        -677.11501111 eV  <-- do not rely on this value for anything but (periodic) metals
  | Electronic free energy per atom                       :        -677.11501111 eV

  Self-consistency convergence accuracy:
  | Change of charge density      :  0.1039E-01
  | Change of sum of eigenvalues  :  0.3035E+00 eV
  | Change of total energy        :  0.1062E-02 eV

  End self-consistency iteration #     6       :  max(cpu_time)    wall_clock(cpu1)
  | Time for this iteration                    :        1.179 s           1.180 s
  | Charge density update                      :        0.383 s           0.383 s
  | Density mixing                             :        0.012 s           0.013 s
  | Hartree multipole update                   :        0.009 s           0.009 s
  | Hartree multipole summation                :        0.282 s           0.282 s
  | Integration                                :        0.491 s           0.491 s
  | Solution of K.-S. eqns.                    :        0.002 s           0.002 s
  | Total energy evaluation                    :        0.000 s           0.000 s

  Partial memory accounting:
  | Current value for overall tracked memory usage on task 0  :           0.166 MB
  | Peak value for overall tracked memory usage on task 0     :           0.692 MB after allocating gradient_basis_wave
  | Largest tracked array allocation on task 0 so far         :           0.394 MB  when allocating gradient_basis_wave
  Note:  These values currently only include a subset of arrays which are explicitly tracked.
  The "true" memory usage will be greater.
------------------------------------------------------------

------------------------------------------------------------
          Begin self-consistency iteration #    7

  Date     :  20200710, Time     :  151001.467
------------------------------------------------------------
  Evaluating new KS density.
  Integration grid: deviation in total charge (<rho> - N_e) =   4.263256E-14
  Pulay mixing of updated and previous charge densities.

  Evaluating partitioned Hartree potential by multipole expansion.
  | Analytical far-field extrapolation by fixed multipoles:
  | Hartree multipole sum: apparent total charge =  -0.507542E-03
  Summing up the Hartree potential.
  Time summed over all CPUs for potential: real work        0.282 s, elapsed        0.282 s
  | RMS charge density error from multipole expansion :   0.257521E-01

  Integrating Hamiltonian matrix: batch-based integration.
  Time summed over all CPUs for integration: real work        0.490 s, elapsed        0.490 s

  Updating Kohn-Sham eigenvalues and eigenvectors using ELSI and the ELPA eigensolver.
  Finished Cholesky decomposition
  | Time :     0.000 s
  Finished transformation to standard eigenproblem
  | Time :     0.000 s
  Starting LAPACK eigensolver
  Finished solving standard eigenproblem
  | Time :     0.001 s
  Finished back-transformation of eigenvectors
  | Time :     0.000 s

[...]
  |   Hirshfeld dipole moment :      0.06056401
  |   Hirshfeld second moments:      0.00580104      -0.02787432      -0.01998368
  |                                 -0.02787432      -0.01122006       0.01237927
  |                                 -0.01998368       0.01237927      -0.01489311
  ----------------------------------------------------------------------
  | Atom    12: O
  |   Hirshfeld charge        :     -0.15027967
  |   Free atom volume        :     23.61338643
  |   Hirshfeld volume        :     20.66971845
  |   Hirshfeld dipole vector :      0.02979147       0.00889119       0.01758573
  |   Hirshfeld dipole moment :      0.03571894
  |   Hirshfeld second moments:      0.05439592      -0.02322256      -0.00425265
  |                                 -0.02322256       0.10569946       0.01098002
  |                                 -0.00425265       0.01098002       0.03213234
  ----------------------------------------------------------------------
  | Atom    13: H
  |   Hirshfeld charge        :      0.18750485
  |   Free atom volume        :      9.95071624
  |   Hirshfeld volume        :      6.12181266
  |   Hirshfeld dipole vector :      0.07003126      -0.10632391      -0.00877595
  |   Hirshfeld dipole moment :      0.12761728
  |   Hirshfeld second moments:      0.12021745       0.00101997      -0.00604402
  |                                  0.00101997       0.12792263       0.00344330
  |                                 -0.00604402       0.00344330       0.10009172
  ----------------------------------------------------------------------


  Total energy components:
  | Sum of eigenvalues            :        -180.57961147 Ha       -4913.82124051 eV
  | XC energy correction          :         -42.63805579 Ha       -1160.24053036 eV
  | XC potential correction       :          54.81786452 Ha        1491.66998890 eV
  | Free-atom electrostatic energy:        -146.85681703 Ha       -3996.17731478 eV
  | Hartree energy correction     :          -8.22910717 Ha        -223.92539918 eV
  | vdW energy correction         :          -0.00322181 Ha          -0.08767001 eV
  | Entropy correction            :           0.00000000 Ha           0.00000000 eV
  | ---------------------------
  | Total energy                  :        -323.48894875 Ha       -8802.58216594 eV
  | Total energy, T -> 0          :        -323.48894875 Ha       -8802.58216594 eV  <-- do not rely on this value for anything but (periodic) metals
  | Electronic free energy        :        -323.48894875 Ha       -8802.58216594 eV

  Derived energy quantities:
  | Kinetic energy                :         322.57637908 Ha        8777.74988176 eV
  | Electrostatic energy          :        -603.42405023 Ha      -16420.00384732 eV
  | Energy correction for multipole
  | error in Hartree potential    :           0.04187120 Ha           1.13937338 eV
  | Sum of eigenvalues per atom                           :        -377.98624927 eV
  | Total energy (T->0) per atom                          :        -677.12170507 eV  <-- do not rely on this value for anything but (periodic) metals
  | Electronic free energy per atom                       :        -677.12170507 eV

  atomic forces [eV/Ang]:
  -----------------------
  atom #    1
   Hellmann-Feynman              : -0.290676E+00  0.802646E+00  0.108950E+01
   Ionic forces                  :  0.000000E+00  0.000000E+00  0.000000E+00
   Multipole                     :  0.476008E-02  0.347098E+00 -0.277117E+00
   Pulay + GGA                   : -0.760197E+00 -0.578627E+00 -0.129587E+01
   Van der Waals                 :  0.293261E-02  0.616630E-02 -0.181842E-02
   ----------------------------------------------------------------
   Total forces(   1)            : -0.104318E+01  0.577283E+00 -0.485308E+00
  atom #    2
   Hellmann-Feynman              :  0.327096E+00 -0.472869E-01  0.555163E-01
   Ionic forces                  :  0.000000E+00  0.000000E+00  0.000000E+00
   Multipole                     :  0.172949E+00  0.113777E-01 -0.376823E-01
   Pulay + GGA                   : -0.148657E+00  0.520264E-02 -0.283703E-02
   Van der Waals                 :  0.557076E-02 -0.762464E-02 -0.493573E-02
   ----------------------------------------------------------------
   Total forces(   2)            :  0.356960E+00 -0.383312E-01  0.100612E-01
  atom #    3
   Hellmann-Feynman              :  0.711198E+01 -0.767802E+01 -0.552966E+01
   Ionic forces                  :  0.000000E+00  0.000000E+00  0.000000E+00
   Multipole                     : -0.211808E+00  0.139124E+00 -0.985248E+00
   Pulay + GGA                   : -0.632349E+01  0.685669E+01  0.700304E+01
   Van der Waals                 :  0.344313E-02 -0.899224E-02 -0.610496E-02
   ----------------------------------------------------------------
   Total forces(   3)            :  0.580120E+00 -0.691195E+00  0.482026E+00
  atom #    4
   Hellmann-Feynman              : -0.207938E+00  0.208890E+00 -0.595896E-01
   Ionic forces                  :  0.000000E+00  0.000000E+00  0.000000E+00
   Multipole                     : -0.946248E-01 -0.128280E-01 -0.572093E-01
   Pulay + GGA                   :  0.244567E+00 -0.226803E-01 -0.478228E-01
   Van der Waals                 : -0.215871E-04 -0.324628E-02 -0.560192E-02
   ----------------------------------------------------------------
   Total forces(   4)            : -0.580181E-01  0.170136E+00 -0.170224E+00
  atom #    5
   Hellmann-Feynman              : -0.170742E+00  0.239049E+00 -0.194821E-02
   Ionic forces                  :  0.000000E+00  0.000000E+00  0.000000E+00
   Multipole                     : -0.480605E-01  0.561749E-01 -0.689904E-01
   Pulay + GGA                   :  0.452617E-01 -0.232760E+00  0.216376E-01
   Van der Waals                 : -0.373801E-02 -0.535388E-02 -0.470726E-02
   ----------------------------------------------------------------
   Total forces(   5)            : -0.177278E+00  0.571104E-01 -0.540082E-01
  atom #    6
   Hellmann-Feynman              :  0.215089E+00 -0.930950E+00  0.686783E+00
   Ionic forces                  :  0.000000E+00  0.000000E+00  0.000000E+00
   Multipole                     : -0.107248E+00  0.612649E+00  0.206200E+00
   Pulay + GGA                   :  0.141283E+00 -0.793229E-01 -0.479664E+00
   Van der Waals                 : -0.496386E-03  0.110552E-01  0.627352E-02
   ----------------------------------------------------------------
   Total forces(   6)            :  0.248628E+00 -0.386569E+00  0.419593E+00
  atom #    7
   Hellmann-Feynman              : -0.216598E+00 -0.527459E-01 -0.429107E-01
   Ionic forces                  :  0.000000E+00  0.000000E+00  0.000000E+00
   Multipole                     : -0.119008E+00  0.489961E-01  0.301883E-01
   Pulay + GGA                   :  0.112220E+00  0.423587E-02  0.401517E-02
   Van der Waals                 : -0.261943E-02  0.431799E-02  0.695674E-02
   ----------------------------------------------------------------
   Total forces(   7)            : -0.226005E+00  0.480399E-02 -0.175047E-02
  atom #    8
   Hellmann-Feynman              :  0.792861E-01  0.663274E-01  0.239756E+00
   Ionic forces                  :  0.000000E+00  0.000000E+00  0.000000E+00
   Multipole                     :  0.148723E-01  0.612651E-01  0.122757E+00
   Pulay + GGA                   : -0.457323E-01 -0.390644E-01 -0.103058E+00
   Van der Waals                 : -0.286911E-02  0.114400E-01  0.550994E-03
   ----------------------------------------------------------------
   Total forces(   8)            :  0.455570E-01  0.999681E-01  0.260006E+00
  atom #    9
   Hellmann-Feynman              :  0.120807E+00  0.563164E-01 -0.189892E+00
   Ionic forces                  :  0.000000E+00  0.000000E+00  0.000000E+00
   Multipole                     :  0.198770E-01  0.131946E+00 -0.670488E-02
   Pulay + GGA                   : -0.375647E-01 -0.688455E-01  0.811405E-01
   Van der Waals                 : -0.221690E-02  0.553114E-02  0.757748E-02
   ----------------------------------------------------------------
   Total forces(   9)            :  0.100903E+00  0.124948E+00 -0.107879E+00
  atom #   10
   Hellmann-Feynman              :  0.295016E+01  0.553105E+01  0.130814E+01
   Ionic forces                  :  0.000000E+00  0.000000E+00  0.000000E+00
   Multipole                     : -0.587215E-01 -0.118494E+00  0.324655E+00
   Pulay + GGA                   : -0.189162E+01 -0.272658E+01 -0.194777E+00
   Van der Waals                 :  0.396076E-02 -0.109011E-01 -0.121200E-02
   ----------------------------------------------------------------
   Total forces(  10)            :  0.100377E+01  0.267507E+01  0.143680E+01
  atom #   11
   Hellmann-Feynman              :  0.405722E+01 -0.212725E+01  0.139499E+02
   Ionic forces                  :  0.000000E+00  0.000000E+00  0.000000E+00
   Multipole                     :  0.875369E-01 -0.712716E+00  0.793014E+00
   Pulay + GGA                   : -0.298758E+01  0.340547E+01 -0.135927E+02
   Van der Waals                 : -0.377869E-02 -0.112512E-01  0.225914E-02
   ----------------------------------------------------------------
   Total forces(  11)            :  0.115340E+01  0.554256E+00  0.115251E+01
  atom #   12
   Hellmann-Feynman              : -0.124532E+02  0.121259E+01 -0.106835E+02
   Ionic forces                  :  0.000000E+00  0.000000E+00  0.000000E+00
   Multipole                     : -0.103107E+01 -0.105219E+01 -0.442806E+00
   Pulay + GGA                   :  0.123001E+02 -0.224679E+01  0.816114E+01
   Van der Waals                 :  0.933321E-03  0.572237E-02  0.475085E-02
   ----------------------------------------------------------------
   Total forces(  12)            : -0.118327E+01 -0.208066E+01 -0.296042E+01
  atom #   13
   Hellmann-Feynman              : -0.609093E+00 -0.132299E+01  0.775055E-01
   Ionic forces                  :  0.000000E+00  0.000000E+00  0.000000E+00
   Multipole                     :  0.504434E-01 -0.641039E-01 -0.237674E-01
   Pulay + GGA                   : -0.241465E+00  0.313316E+00 -0.336456E-01
   Van der Waals                 : -0.110046E-02  0.313622E-02 -0.398842E-02
   ----------------------------------------------------------------
   Total forces(  13)            : -0.801215E+00 -0.107064E+01  0.161041E-01

  Timings for VdW correction (Tkatchenko-Scheffler 2009 or later):
  | CPU time:        0.089 s, Wall clock time:        0.090 s.
  Removing unitary transformations (pure translations, rotations) from forces on atoms.
  Atomic forces before filtering:
  | Net force on center of mass :   0.372410E-03 -0.381252E-02 -0.248879E-02 eV/A
  | Net torque on center of mass:  -0.619538E-02  0.247693E-02  0.924216E-03 eV
  Atomic forces after filtering:
  | Net force on center of mass :   0.178406E-15  0.178406E-15  0.822341E-15 eV/A
  | Net torque on center of mass:  -0.147513E-14  0.963999E-15  0.113290E-14 eV

  Energy and forces in a compact form:
  | Total energy uncorrected      :         -0.880258216593752E+04 eV
  | Total energy corrected        :         -0.880258216593752E+04 eV  <-- do not rely on this value for anything but (periodic) metals
  | Electronic free energy        :         -0.880258216593752E+04 eV
  Total atomic forces (unitary forces cleaned) [eV/Ang]:
  |   1         -0.104319344162230E+01          0.577587763095530E+00         -0.485052878881157E+00
  |   2          0.356947567371283E+00         -0.380452570741632E-01          0.104387157061741E-01
  |   3          0.580265304084805E+00         -0.690683563392985E+00          0.482227848879059E+00
  |   4         -0.578763704684554E-01          0.170666978272801E+00         -0.170180520578758E+00
  |   5         -0.177077826582096E+00          0.576714505147592E-01         -0.536700859586004E-01
  |   6          0.248555532006643E+00         -0.386359136447937E+00          0.419971426723140E+00
  |   7         -0.226078649794518E+00          0.503006005409237E-02         -0.149029395306387E-02
  |   8          0.453697853046307E-01          0.100026300757829E+00          0.260426244522541E+00
  |   9          0.100902074851413E+00          0.125223113937218E+00         -0.107333546561364E+00
  |  10          0.100365768460653E+01          0.267527974709223E+01          0.143683165783117E+01
  |  11          0.115314882653570E+01          0.554296281313903E+00          0.115253482407619E+01
  |  12         -0.118332543346982E+01         -0.208034621364897E+01         -0.296059273818490E+01
  |  13         -0.801295052823816E+00         -0.107034752447430E+01          0.158893463795600E-01

  ------------------------------------ 
  Start decomposition of the XC Energy 
  ------------------------------------ 
  X and C from original XC functional choice 
  Hartree-Fock Energy :          0.000000000 Ha              0.000000000 eV
  X Energy            :        -41.037740823 Ha          -1116.693744542 eV
  C Energy            :         -1.600314965 Ha            -43.546785822 eV
  Total XC Energy     :        -42.638055787 Ha          -1160.240530364 eV
  ------------------------------------ 
  LDA X and C from self-consistent density 
  X Energy LDA        :        -37.256296378 Ha          -1013.795405797 eV
  C Energy LDA        :         -3.138527016 Ha            -85.403665389 eV
  ------------------------------------ 
  End decomposition of the XC Energy 
  ------------------------------------ 

------------------------------------------------------------

------------------------------------------------------------------------------
  Final output of selected total energy values:

  The following output summarizes some interesting total energy values
  at the end of a run (AFTER all relaxation, molecular dynamics, etc.).

  | Total energy of the DFT / Hartree-Fock s.c.f. calculation      :          -8802.582165938 eV
  | Final zero-broadening corrected energy (caution - metals only) :          -8802.582165938 eV
  | For reference only, the value of 1 Hartree used in FHI-aims is :             27.211384500 eV

  Before relying on these values, please be sure to understand exactly which
  total energy value is referred to by a given number. Different objects may
  all carry the same name 'total energy'. Definitions:

  Total energy of the DFT / Hartree-Fock s.c.f. calculation:
  | Note that this energy does not include ANY quantities calculated after the
  | s.c.f. cycle, in particular not ANY RPA, MP2, etc. many-body perturbation terms.

  Final zero-broadening corrected energy:
  | For metallic systems only, a broadening of the occupation numbers at the Fermi
  | level can be extrapolated back to zero broadening by an electron-gas inspired
  | formula. For all systems that are not real metals, this value can be
  | meaningless and should be avoided.

------------------------------------------------------------------------------
  Methods described in the following list of references were used in this FHI-aims run.
  If you publish the results, please make sure to cite these reference if they apply.
  FHI-aims is an academic code, and for our developers (often, Ph.D. students
  and postdocs), scientific credit in the community is essential.
  Thank you for helping us!

  For any use of FHI-aims, please cite:

    Volker Blum, Ralf Gehrke, Felix Hanke, Paula Havu, Ville Havu,
    Xinguo Ren, Karsten Reuter, and Matthias Scheffler
    'Ab initio molecular simulations with numeric atom-centered orbitals'
    Computer Physics Communications 180, 2175-2196 (2009)
    http://dx.doi.org/10.1016/j.cpc.2009.06.022


  The scalable eigensolver library ELPA was used in your run.
  ELPA is essential especially for large systems on hundreds or thousands of CPUs.
  For ELPA, please cite:

    Andreas Marek, Volker Blum, Rainer Johanni, Ville Havu, Bruno Lang,
    Thomas Auckenthaler, Alexander Heinecke, Hans-Joachim Bungartz, and Hermann Lederer,
    'The ELPA Library - Scalable Parallel Eigenvalue Solutions
    for Electronic Structure Theory and Computational Science'
    The Journal of Physics: Condensed Matter 26, 213201 (2014).
    http://dx.doi.org/10.1088/0953-8984/26/21/213201


  The ELSI infrastructure was used in your run to solve the Kohn-Sham electronic structure.
  Please check out http://elsi-interchange.org to learn more.
  If scalability is important for your project, please acknowledge ELSI by citing:

    V. W-z. Yu, F. Corsetti, A. Garcia, W. P. Huhn, M. Jacquelin, W. Jia,
    B. Lange, L. Lin, J. Lu, W. Mi, A. Seifitokaldani, A. Vazquez-Mayagoitia,
    C. Yang, H. Yang, and V. Blum
    'ELSI: A unified software interface for Kohn-Sham electronic structure solvers'
    Computer Physics Communications 222, 267-285 (2018).
    http://dx.doi.org/10.1016/j.cpc.2017.09.007


  For the real-space grid partitioning and parallelization used in this calculation, please cite:

    Ville Havu, Volker Blum, Paula Havu, and Matthias Scheffler,
    'Efficient O(N) integration for all-electron electronic structure calculation'
    'using numerically tabulated basis functions'
    Journal of Computational Physics 228, 8367-8379 (2009).
    http://dx.doi.org/10.1016/j.jcp.2009.08.008

  Of course, there are many other important community references, e.g., those cited in the
  above references. Our list is limited to references that describe implementations in the
  FHI-aims code. The reason is purely practical (length of this list) - please credit others as well.

------------------------------------------------------------
          Leaving FHI-aims.
          Date     :  20200710, Time     :  151015.666

          Computational steps:
          | Number of self-consistency cycles          :           16
          | Number of SCF (re)initializations          :            1

          Detailed time accounting                     :  max(cpu_time)    wall_clock(cpu1)
          | Total time                                 :       22.553 s          22.596 s
          | Preparation time                           :        0.147 s           0.148 s
          | Boundary condition initalization           :        0.000 s           0.000 s
          | Grid partitioning                          :        0.112 s           0.112 s
          | Preloading free-atom quantities on grid    :        0.002 s           0.002 s
          | Free-atom superposition energy             :        0.085 s           0.085 s
          | Total time for integrations                :        8.561 s           8.571 s
          | Total time for solution of K.-S. equations :        0.036 s           0.038 s
          | Total time for density & force components  :        7.085 s           7.091 s
          | Total time for mixing                      :        0.215 s           0.217 s
          | Total time for Hartree multipole update    :        0.142 s           0.141 s
          | Total time for Hartree multipole sum       :        5.771 s           5.782 s
          | Total time for total energy evaluation     :        0.003 s           0.005 s
          | Total time for vdW correction              :        0.089 s           0.090 s

          Partial memory accounting:
          | Residual value for overall tracked memory usage across tasks :           0.000 MB (should be 0.000 MB)
          | Peak values for overall tracked memory usage (after allocating hessian_basis_wave):
          |   Minimum:        1.612 MB (on task 1)
          |   Maximum:        1.612 MB (on task 1)
          |   Average:        1.612 MB
          | Largest tracked array allocation (hessian_basis_wave):
          |   Minimum:        0.788 MB (on task 1)
          |   Maximum:        0.788 MB (on task 1)
          |   Average:        0.788 MB
          Note:  These values currently only include a subset of arrays which are explicitly tracked.
          The "true" memory usage will be greater.

          Have a nice day.
------------------------------------------------------------
