  MPI-parallelism will be employed.
------------------------------------------------------------
          Invoking FHI-aims ...
          Version 171221_1
          Compiled on 2019/09/09 at 14:39:39 on host puhti-login2.bullx.

          When using FHI-aims, please cite the following reference:

          Volker Blum, Ralf Gehrke, Felix Hanke, Paula Havu,
          Ville Havu, Xinguo Ren, Karsten Reuter, and Matthias Scheffler,
          'Ab Initio Molecular Simulations with Numeric Atom-Centered Orbitals',
          Computer Physics Communications 180, 2175-2196 (2009)

          For any questions about FHI-aims, please visit the aimsclub website
          with its forums and wiki. Contributions to both the forums and the
          wiki are warmly encouraged - they are for you, and everyone is welcome there.

------------------------------------------------------------



  Date     :  20200805, Time     :  182220.065
  Time zero on CPU 1             :   0.108140000000000E-01  s.
  Internal wall clock time zero  :           365883740.065  s.

  FHI-aims created a unique identifier for this run for later identification
  aims_uuid : E0805C99-0B31-486B-AE09-C9F0A392C507

  Using        1 parallel tasks.
  Task        0 on host r14c12.bullx reporting.

  Performing system and environment tests:
  | Environment variable OMP_NUM_THREADS correctly set to 1.
  | Stacksize not measured: no C compiler
  | Checking for scalapack...
  | Testing pdtran()...
  | All pdtran() tests passed.

  Obtaining array dimensions for all initial allocations:
  
  -----------------------------------------------------------------------
  Parsing control.in (first pass over file, find array dimensions only).
  The contents of control.in will be repeated verbatim below
  unless switched off by setting 'verbatim_writeout .false.' .
  in the first line of control.in .
  -----------------------------------------------------------------------
  
  #########################################################################################
  #
  #  Volker Blum, FHI 2009 : Test run input file control.in for simple H2O
  #
  #########################################################################################
  #
  #  Physical model
  #
    xc                 pbe
    vdw_correction_hirshfeld
    spin               none
    relativistic       none
    charge             0.
  #
  #  SCF convergence
  #
    occupation_type    gaussian 0.01
    mixer              pulay
      n_max_pulay        10
      charge_mix_param   0.2
    sc_accuracy_rho    1E-5
    sc_accuracy_eev    1E-3
    sc_accuracy_etot   1E-6
    sc_accuracy_forces 1E-4
    sc_iter_limit      100
  #
  #  Relaxation
  #
  #  relax_geometry   bfgs 1.e-3
  #
  ################################################################################
  #
  #  FHI-aims code project
  #  VB, Fritz-Haber Institut, 2009
  #
  #  Suggested "light" defaults for H atom (to be pasted into control.in file)
  #  Be sure to double-check any results obtained with these settings for post-processing,
  #  e.g., with the "tight" defaults and larger basis sets.
  #
  ################################################################################
    species        H
  #     global species definitions
      nucleus             1
      mass                1.00794
  #
      l_hartree           4
  #
      cut_pot             3.5  1.5  1.0
      basis_dep_cutoff    1e-4
  #
      radial_base         24 5.0
      radial_multiplier   1
      angular_grids       specified
        division   0.2421   50
        division   0.3822  110
        division   0.4799  194
        division   0.5341  302
  #      division   0.5626  434
  #      division   0.5922  590
  #      division   0.6542  770
  #      division   0.6868 1202
  #      outer_grid  770
        outer_grid  302
  ################################################################################
  #
  #  Definition of "minimal" basis
  #
  ################################################################################
  #     valence basis states
      valence      1  s   1.
  #     ion occupancy
      ion_occ      1  s   0.5
  ################################################################################
  #
  #  Suggested additional basis functions. For production calculations,
  #  uncomment them one after another (the most important basis functions are
  #  listed first).
  #
  #  Basis constructed for dimers: 0.5 A, 0.7 A, 1.0 A, 1.5 A, 2.5 A
  #
  ################################################################################
  #  "First tier" - improvements: -1014.90 meV to -62.69 meV
       hydro 2 s 2.1
       hydro 2 p 3.5
  #  "Second tier" - improvements: -12.89 meV to -1.83 meV
  #     hydro 1 s 0.85
  #     hydro 2 p 3.7
  #     hydro 2 s 1.2
  #     hydro 3 d 7
  #  "Third tier" - improvements: -0.25 meV to -0.12 meV
  #     hydro 4 f 11.2
  #     hydro 3 p 4.8
  #     hydro 4 d 9
  #     hydro 3 s 3.2
  ################################################################################
  #
  #  FHI-aims code project
  #  VB, Fritz-Haber Institut, 2009
  #
  #  Suggested "light" defaults for C atom (to be pasted into control.in file)
  #  Be sure to double-check any results obtained with these settings for post-processing,
  #  e.g., with the "tight" defaults and larger basis sets.
  #
  ################################################################################
    species        C
  #     global species definitions
      nucleus             6
      mass                12.0107
  #
      l_hartree           4
  #
      cut_pot             3.5  1.5  1.0
      basis_dep_cutoff    1e-4
  #
      radial_base         34 5.0
      radial_multiplier   1
      angular_grids specified
        division   0.3326   50
        division   0.5710  110
        division   0.7727  194
        division   0.8772  302
  #      division   0.9334  434
  #      division   0.9625  590
  #      division   0.9924  770
  #      division   1.0230  974
  #      division   1.4589 1202
  #     outer_grid  974
       outer_grid 302
  ################################################################################
  #
  #  Definition of "minimal" basis
  #
  ################################################################################
  #     valence basis states
      valence      2  s   2.
      valence      2  p   2.
  #     ion occupancy
      ion_occ      2  s   1.
      ion_occ      2  p   1.
  ################################################################################
  #
  #  Suggested additional basis functions. For production calculations,
  #  uncomment them one after another (the most important basis functions are
  #  listed first).
  #
  #  Constructed for dimers: 1.0 A, 1.25 A, 1.5 A, 2.0 A, 3.0 A
  #
  ################################################################################
  #  "First tier" - improvements: -1214.57 meV to -155.61 meV
       hydro 2 p 1.7
       hydro 3 d 6
       hydro 2 s 4.9
  #  "Second tier" - improvements: -67.75 meV to -5.23 meV
  #     hydro 4 f 9.8
  #     hydro 3 p 5.2
  #     hydro 3 s 4.3
  #     hydro 5 g 14.4
  #     hydro 3 d 6.2
  #  "Third tier" - improvements: -2.43 meV to -0.60 meV
  #     hydro 2 p 5.6
  #     hydro 2 s 1.4
  #     hydro 3 d 4.9
  #     hydro 4 f 11.2
  #  "Fourth tier" - improvements: -0.39 meV to -0.18 meV
  #     hydro 2 p 2.1
  #     hydro 5 g 16.4
  #     hydro 4 d 13.2
  #     hydro 3 s 13.6
  #     hydro 4 f 17.6
  #  Further basis functions - improvements: -0.08 meV and below
  #     hydro 3 s 2
  #     hydro 3 p 6
  #     hydro 4 d 20
  ################################################################################
  #
  #  FHI-aims code project
  #  VB, Fritz-Haber Institut, 2009
  #
  #  Suggested "light" defaults for N atom (to be pasted into control.in file)
  #  Be sure to double-check any results obtained with these settings for post-processing,
  #  e.g., with the "tight" defaults and larger basis sets.
  #
  ################################################################################
    species        N
  #     global species definitions
      nucleus             7
      mass                14.0067
  #
      l_hartree           4
  #
      cut_pot             3.5  1.5  1.0
      basis_dep_cutoff    1e-4
  #
      radial_base         35 5.0
      radial_multiplier   1
      angular_grids       specified
        division   0.2599   50
        division   0.4601  110
        division   0.5885  194
        division   0.6503  302
  #      division   0.6939  434
  #      division   0.7396  590
  #      division   0.7632  770
  #      division   0.8122  974
  #      division   1.1604 1202
  #      outer_grid  974
        outer_grid  302
  ################################################################################
  #
  #  Definition of "minimal" basis
  #
  ################################################################################
  #     valence basis states
      valence      2  s   2.
      valence      2  p   3.
  #     ion occupancy
      ion_occ      2  s   1.
      ion_occ      2  p   2.
  ################################################################################
  #
  #  Suggested additional basis functions. For production calculations,
  #  uncomment them one after another (the most important basis functions are
  #  listed first).
  #
  #  Constructed for dimers: 1.0 A, 1.1 A, 1.5 A, 2.0 A, 3.0 A
  #
  ################################################################################
  #  "First tier" - improvements: -1193.42 meV to -220.60 meV
       hydro 2 p 1.8
       hydro 3 d 6.8
       hydro 3 s 5.8
  #  "Second tier" - improvements: -80.21 meV to -6.86 meV
  #     hydro 4 f 10.8
  #     hydro 3 p 5.8
  #     hydro 1 s 0.8
  #     hydro 5 g 16
  #     hydro 3 d 4.9
  #  "Third tier" - improvements: -4.29 meV to -0.53 meV
  #     hydro 3 s 16
  #     ionic 2 p auto
  #     hydro 3 d 6.6
  #     hydro 4 f 11.6
  #  "Fourth tier" - improvements: -0.75 meV to -0.25 meV
  #     hydro 2 p 4.5
  #     hydro 2 s 2.4
  #     hydro 5 g 14.4
  #     hydro 4 d 14.4
  #     hydro 4 f 16.8
  # Further basis functions - -0.21 meV and below
  #     hydro 3 p 14.8
  #     hydro 3 s 4.4
  #     hydro 3 d 19.6
  #     hydro 5 g 12.8
  ################################################################################
  #
  #  FHI-aims code project
  #  VB, Fritz-Haber Institut, 2009
  #
  #  Suggested "light" defaults for O atom (to be pasted into control.in file)
  #  Be sure to double-check any results obtained with these settings for post-processing,
  #  e.g., with the "tight" defaults and larger basis sets.
  #
  ################################################################################
    species        O
  #     global species definitions
      nucleus             8
      mass                15.9994
  #
      l_hartree           4
  #
      cut_pot             3.5  1.5  1.0
      basis_dep_cutoff    1e-4
  #
      radial_base         36 5.0
      radial_multiplier   1
       angular_grids specified
        division   0.2659   50
        division   0.4451  110
        division   0.6052  194
        division   0.7543  302
  #      division   0.8014  434
  #      division   0.8507  590
  #      division   0.8762  770
  #      division   0.9023  974
  #      division   1.2339 1202
  #      outer_grid 974
        outer_grid 302
  ################################################################################
  #
  #  Definition of "minimal" basis
  #
  ################################################################################
  #     valence basis states
      valence      2  s   2.
      valence      2  p   4.
  #     ion occupancy
      ion_occ      2  s   1.
      ion_occ      2  p   3.
  ################################################################################
  #
  #  Suggested additional basis functions. For production calculations,
  #  uncomment them one after another (the most important basis functions are
  #  listed first).
  #
  #  Constructed for dimers: 1.0 A, 1.208 A, 1.5 A, 2.0 A, 3.0 A
  #
  ################################################################################
  #  "First tier" - improvements: -699.05 meV to -159.38 meV
       hydro 2 p 1.8
       hydro 3 d 7.6
       hydro 3 s 6.4
  #  "Second tier" - improvements: -49.91 meV to -5.39 meV
  #     hydro 4 f 11.6
  #     hydro 3 p 6.2
  #     hydro 3 d 5.6
  #     hydro 5 g 17.6
  #     hydro 1 s 0.75
  #  "Third tier" - improvements: -2.83 meV to -0.50 meV
  #     ionic 2 p auto
  #     hydro 4 f 10.8
  #     hydro 4 d 4.7
  #     hydro 2 s 6.8
  #  "Fourth tier" - improvements: -0.40 meV to -0.12 meV
  #     hydro 3 p 5
  #     hydro 3 s 3.3
  #     hydro 5 g 15.6
  #     hydro 4 f 17.6
  #     hydro 4 d 14
  # Further basis functions - -0.08 meV and below
  #     hydro 3 s 2.1
  #     hydro 4 d 11.6
  #     hydro 3 p 16
  #     hydro 2 s 17.2
  
  -----------------------------------------------------------------------
  Completed first pass over input file control.in .
  -----------------------------------------------------------------------
  
  
  -----------------------------------------------------------------------
  Parsing geometry.in (first pass over file, find array dimensions only).
  The contents of geometry.in will be repeated verbatim below
  unless switched off by setting 'verbatim_writeout .false.' .
  in the first line of geometry.in .
  -----------------------------------------------------------------------
  
  atom  0.00000 0.00000 0.00000 C
  atom  1.09300 0.00000 0.00000 H
  atom  -0.47961 0.00000 -1.41207 N
  atom  0.29927 -0.25119 -2.02205 H
  atom  -1.23082 -0.68096 -1.50212 H
  atom  -0.49584 1.26211 0.72868 C
  atom  -1.58789 1.28919 0.74431 H
  atom  -0.13407 1.27425 1.75947 H
  atom  -0.13407 2.16087 0.22380 H
  atom  -0.39425 -1.28861 0.74398 C
  atom  -0.10189 -1.56493 1.88303 O
  atom  -1.10210 -2.13717 0.06896 O
  atom  -1.91222 -1.60725 -0.01977 H
  
  -----------------------------------------------------------------------
  Completed first pass over input file geometry.in .
  -----------------------------------------------------------------------
  

  Basic array size parameters:
  | Number of species                 :        4
  | Number of atoms                   :       13
  | Max. basis fn. angular momentum   :        2
  | Max. atomic/ionic basis occupied n:        2
  | Max. number of basis fn. types    :        2
  | Max. radial fns per species/type  :        3
  | Max. logarithmic grid size        :     1301
  | Max. radial integration grid size :       36
  | Max. angular integration grid size:      302
  | Max. angular grid division number :        8
  | Radial grid for Hartree potential :     1301
  | Number of spin channels           :        1

------------------------------------------------------------
          Reading file control.in.
------------------------------------------------------------
  XC: Using PBE gradient-corrected functionals.
  Spin treatment: No spin polarisation.
  Non-relativistic treatment of kinetic energy.
  Charge =   0.000000E+00: Neutral system requested explicitly.
  Occupation type: Gaussian broadening, width =   0.100000E-01 eV.
  Using pulay charge density mixing.
  Pulay mixing - number of memorized iterations:   10
  Charge density mixing - mixing parameter:     0.2000
  Convergence accuracy of self-consistent charge density:  0.1000E-04
  Convergence accuracy of sum of eigenvalues:  0.1000E-02
  Convergence accuracy of total energy:  0.1000E-05
  Convergence accuracy of forces:  0.1000E-03
  Maximum number of s.-c. iterations  :   100
 
  Reading configuration options for species H                   .
  | Found nuclear charge :   1.0000
  | Found atomic mass :    1.00794000000000      amu
  | Found l_max for Hartree potential  :   4
  | Found cutoff potl. onset [A], width [A], scale factor :    3.50000    1.50000    1.00000
  | Threshold for basis-dependent cutoff potential is   0.100000E-03
  | Found data for basic radial integration grid :    24 points, outermost radius =    5.000 A
  | Found multiplier for basic radial grid :   1
  | Found angular grid specification: user-specified.
  | Specified grid contains     5 separate shells.
  | Check grid settings after all constraints further below.
  | Found free-atom valence shell :  1 s   1.000
  | No ionic wave fns used. Skipping ion_occ.
  | Found hydrogenic basis function :  2 s   2.100
  | Found hydrogenic basis function :  2 p   3.500
  Species H                   : Missing cutoff potential type.
  Defaulting to exp(1/x)/(1-x)^2 type cutoff potential.
  Species H : No 'logarithmic' tag. Using default grid for free atom:
  | Default logarithmic grid data [bohr] : 0.1000E-03 0.1000E+03 0.1012E+01
  Species H : On-site basis accuracy parameter (for Gram-Schmidt orthonormalisation) not specified.
  Using default value basis_acc =  0.1000000E-03.
  Species H                   : Using default innermost maximum threshold i_radial=  2 for radial functions.
  Species H                   : Default cutoff onset for free atom density etc. : 0.35000000E+01 AA.
  Species H                   : Basic radial grid will be enhanced according to radial_multiplier =   1, to contain    24 grid points.
 
  Reading configuration options for species C                   .
  | Found nuclear charge :   6.0000
  | Found atomic mass :    12.0107000000000      amu
  | Found l_max for Hartree potential  :   4
  | Found cutoff potl. onset [A], width [A], scale factor :    3.50000    1.50000    1.00000
  | Threshold for basis-dependent cutoff potential is   0.100000E-03
  | Found data for basic radial integration grid :    34 points, outermost radius =    5.000 A
  | Found multiplier for basic radial grid :   1
  | Found angular grid specification: user-specified.
  | Specified grid contains     5 separate shells.
  | Check grid settings after all constraints further below.
  | Found free-atom valence shell :  2 s   2.000
  | Found free-atom valence shell :  2 p   2.000
  | No ionic wave fns used. Skipping ion_occ.
  | No ionic wave fns used. Skipping ion_occ.
  | Found hydrogenic basis function :  2 p   1.700
  | Found hydrogenic basis function :  3 d   6.000
  | Found hydrogenic basis function :  2 s   4.900
  Species C                   : Missing cutoff potential type.
  Defaulting to exp(1/x)/(1-x)^2 type cutoff potential.
  Species C : No 'logarithmic' tag. Using default grid for free atom:
  | Default logarithmic grid data [bohr] : 0.1000E-03 0.1000E+03 0.1012E+01
  Species C : On-site basis accuracy parameter (for Gram-Schmidt orthonormalisation) not specified.
  Using default value basis_acc =  0.1000000E-03.
  Species C                   : Using default innermost maximum threshold i_radial=  2 for radial functions.
  Species C                   : Default cutoff onset for free atom density etc. : 0.35000000E+01 AA.
  Species C                   : Basic radial grid will be enhanced according to radial_multiplier =   1, to contain    34 grid points.
 
  Reading configuration options for species N                   .
  | Found nuclear charge :   7.0000
  | Found atomic mass :    14.0067000000000      amu
  | Found l_max for Hartree potential  :   4
  | Found cutoff potl. onset [A], width [A], scale factor :    3.50000    1.50000    1.00000
  | Threshold for basis-dependent cutoff potential is   0.100000E-03
  | Found data for basic radial integration grid :    35 points, outermost radius =    5.000 A
  | Found multiplier for basic radial grid :   1
  | Found angular grid specification: user-specified.
  | Specified grid contains     5 separate shells.
  | Check grid settings after all constraints further below.
  | Found free-atom valence shell :  2 s   2.000
  | Found free-atom valence shell :  2 p   3.000
  | No ionic wave fns used. Skipping ion_occ.
  | No ionic wave fns used. Skipping ion_occ.
  | Found hydrogenic basis function :  2 p   1.800
  | Found hydrogenic basis function :  3 d   6.800
  | Found hydrogenic basis function :  3 s   5.800
  Species N                   : Missing cutoff potential type.
  Defaulting to exp(1/x)/(1-x)^2 type cutoff potential.
  Species N : No 'logarithmic' tag. Using default grid for free atom:
  | Default logarithmic grid data [bohr] : 0.1000E-03 0.1000E+03 0.1012E+01
  Species N : On-site basis accuracy parameter (for Gram-Schmidt orthonormalisation) not specified.
  Using default value basis_acc =  0.1000000E-03.
  Species N                   : Using default innermost maximum threshold i_radial=  2 for radial functions.
  Species N                   : Default cutoff onset for free atom density etc. : 0.35000000E+01 AA.
  Species N                   : Basic radial grid will be enhanced according to radial_multiplier =   1, to contain    35 grid points.
 
  Reading configuration options for species O                   .
  | Found nuclear charge :   8.0000
  | Found atomic mass :    15.9994000000000      amu
  | Found l_max for Hartree potential  :   4
  | Found cutoff potl. onset [A], width [A], scale factor :    3.50000    1.50000    1.00000
  | Threshold for basis-dependent cutoff potential is   0.100000E-03
  | Found data for basic radial integration grid :    36 points, outermost radius =    5.000 A
  | Found multiplier for basic radial grid :   1
  | Found angular grid specification: user-specified.
  | Specified grid contains     5 separate shells.
  | Check grid settings after all constraints further below.
  | Found free-atom valence shell :  2 s   2.000
  | Found free-atom valence shell :  2 p   4.000
  | No ionic wave fns used. Skipping ion_occ.
  | No ionic wave fns used. Skipping ion_occ.
  | Found hydrogenic basis function :  2 p   1.800
  | Found hydrogenic basis function :  3 d   7.600
  | Found hydrogenic basis function :  3 s   6.400
  Species O                   : Missing cutoff potential type.
  Defaulting to exp(1/x)/(1-x)^2 type cutoff potential.
  Species O : No 'logarithmic' tag. Using default grid for free atom:
  | Default logarithmic grid data [bohr] : 0.1000E-03 0.1000E+03 0.1012E+01
  Species O : On-site basis accuracy parameter (for Gram-Schmidt orthonormalisation) not specified.
  Using default value basis_acc =  0.1000000E-03.
  Species O                   : Using default innermost maximum threshold i_radial=  2 for radial functions.
  Species O                   : Default cutoff onset for free atom density etc. : 0.35000000E+01 AA.
  Species O                   : Basic radial grid will be enhanced according to radial_multiplier =   1, to contain    36 grid points.
 
  Finished reading input file 'control.in'. Consistency checks are next.
 
  MPI_IN_PLACE appears to work with this MPI implementation.
  | Keeping use_mpi_in_place .true. (see manual).
  Target number of points in a grid batch is not set. Defaulting to  100
  Method for grid partitioning is not set. Defaulting to parallel hash+maxmin partitioning.
  Batch size limit is not set. Defaulting to    200
  By default, will store active basis functions for each batch.
  If in need of memory, prune_basis_once .false. can be used to disable this option.
  communication_type for Hartree potential was not specified.
  Defaulting to calc_hartree .
  Pulay mixer: Number of initial linear mixing iterations not set.
  Defaulting to    0 iterations.
  Work space size for distributed Hartree potential not set.
  Defaulting to   0.200000E+03 MB.
  Algorithm-dependent basis array size parameters:
  | n_max_pulay                         :       10
  Presetting      1001 iterations before the initial mixing cycle
  is restarted anyway using the sc_init_iter criterion / keyword.
  Presetting a factor      1.000 between actual scf density residual
  and density convergence criterion sc_accuracy_rho below which sc_init_iter
  takes no effect.
  Geometry relaxation not requested: no relaxation will be performed.
  Handling of forces: Unphysical translation and rotation will be removed from forces.
  No accuracy limit for integral partition fn. given. Defaulting to  0.1000E-14.
  No threshold value for u(r) in integrations given. Defaulting to  0.1000E-05.
  No accuracy for occupation numbers given. Defaulting to  0.1000E-12.
  No threshold value for occupation numbers given. Defaulting to  0.0000E+00.
  No accuracy for fermi level given. Defaulting to  0.1000E-19.
  Maximum # of iterations to find E_F not set. Defaulting to  200.
  Preferred method for the eigenvalue solver ('KS_method') not specified in 'control.in'.
  Defaulting to serial version, 'lapack_fast'.
  Will not use alltoall communication since running on < 1024 CPUs.
  Threshold for basis singularities not set.
  Default threshold for basis singularities:  0.1000E-04
  partition_type (choice of integration weights) for integrals was not specified.
  | Using a version of the partition function of Stratmann and coworkers ('stratmann_smoother').
  | At each grid point, the set of atoms used to build the partition table is smoothly restricted to
  | only those atoms whose free-atom density would be non-zero at that grid point.
  Partitioning for Hartree potential was not defined. Using partition_type for integrals.
  | Adjusted default value of keyword multip_moments_threshold to:       0.10000000E-11
  | This value may affect high angular momentum components of the Hartree potential in periodic systems.
  No q(lm)/r^(l+1) cutoff set for long-range Hartree potential.
  | Using default value of  0.100000E-09 .
  | Verify using the multipole_threshold keyword.
  Defaulting to new monopole extrapolation.
  Density update method: automatic selection selected.
------------------------------------------------------------


------------------------------------------------------------
          Reading geometry description geometry.in.
------------------------------------------------------------
  Input structure read successfully.
  The structure contains       13 atoms,  and a total of         48.000 electrons.

  Input geometry:
  | No unit cell requested.
  | Atomic structure:
  |       Atom                x [A]            y [A]            z [A]
  |    1: Species C             0.00000000        0.00000000        0.00000000
  |    2: Species H             1.09300000        0.00000000        0.00000000
  |    3: Species N            -0.47961000        0.00000000       -1.41207000
  |    4: Species H             0.29927000       -0.25119000       -2.02205000
  |    5: Species H            -1.23082000       -0.68096000       -1.50212000
  |    6: Species C            -0.49584000        1.26211000        0.72868000
  |    7: Species H            -1.58789000        1.28919000        0.74431000
  |    8: Species H            -0.13407000        1.27425000        1.75947000
  |    9: Species H            -0.13407000        2.16087000        0.22380000
  |   10: Species C            -0.39425000       -1.28861000        0.74398000
  |   11: Species O            -0.10189000       -1.56493000        1.88303000
  |   12: Species O            -1.10210000       -2.13717000        0.06896000
  |   13: Species H            -1.91222000       -1.60725000       -0.01977000
  |

  | The smallest distance between any two atoms is         0.97210217 AA.
  |
  | The first atom of this pair is atom number                     12 .
  | The second atom of this pair is atom number                    13 .

  Number of empty states per atom not set in control.in - providing a guess from actual geometry.
  | Total number of empty states used during s.c.f. cycle:       29
  If you use a very high smearing, use empty_states (per atom!) in control.in to increase this value.

  Structure-dependent array size parameters: 
  | Maximum number of distinct radial functions  :       21
  | Maximum number of basis functions            :      119
  | Number of Kohn-Sham states (occupied + empty):       53
------------------------------------------------------------

------------------------------------------------------------
          Preparing all fixed parts of the calculation.
------------------------------------------------------------
  Determining machine precision:
    2.225073858507201E-308
  Setting up grids for atomic and cluster calculations.

  Creating wave function, potential, and density for free atoms.

  Species: H

  List of occupied orbitals and eigenvalues:
    n    l              occ      energy [Ha]    energy [eV]
    1    0           1.0000        -0.237589        -6.4651


  Species: C

  List of occupied orbitals and eigenvalues:
    n    l              occ      energy [Ha]    energy [eV]
    1    0           2.0000       -10.038835      -273.1706
    2    0           2.0000        -0.502696       -13.6791
    2    1           2.0000        -0.191971        -5.2238


  Species: N

  List of occupied orbitals and eigenvalues:
    n    l              occ      energy [Ha]    energy [eV]
    1    0           2.0000       -14.128000      -384.4424
    2    0           2.0000        -0.681077       -18.5330
    2    1           3.0000        -0.259788        -7.0692


  Species: O

  List of occupied orbitals and eigenvalues:
    n    l              occ      energy [Ha]    energy [eV]
    1    0           2.0000       -18.898188      -514.2459
    2    0           2.0000        -0.878505       -23.9053
    2    1           4.0000        -0.331779        -9.0282

  Creating fixed part of basis set: Ionic, confined, hydrogenic.
 
  H                    hydrogenic:
 
  List of hydrogenic basis orbitals: 
    n    l      effective z      eigenvalue [eV]  inner max. [A]     outer max. [A]     outer radius [A]   
    2    0         2.100000       -14.9728           0.193243           1.317208           4.583499
    2    1         3.500000       -41.6669           0.602369           0.602369           3.723403
 
 
  C                    hydrogenic:
 
  List of hydrogenic basis orbitals: 
    n    l      effective z      eigenvalue [eV]  inner max. [A]     outer max. [A]     outer radius [A]   
    2    1         1.700000        -9.7616           1.230570           1.230570           4.607917
    3    2         6.000000       -54.4224           0.792453           0.792453           3.883070
    2    0         4.900000       -81.6679           0.082559           0.562749           3.078220
 
 
  N                    hydrogenic:
 
  List of hydrogenic basis orbitals: 
    n    l      effective z      eigenvalue [eV]  inner max. [A]     outer max. [A]     outer radius [A]   
    2    1         1.800000       -10.9749           1.177451           1.177451           4.573712
    3    2         6.800000       -69.9026           0.704619           0.704619           3.538137
    3    0         5.800000       -50.8545           0.067388           1.191934           4.250239
 
 
  O                    hydrogenic:
 
  List of hydrogenic basis orbitals: 
    n    l      effective z      eigenvalue [eV]  inner max. [A]     outer max. [A]     outer radius [A]   
    2    1         1.800000       -10.9749           1.164242           1.164242           4.578029
    3    2         7.600000       -87.3180           0.624125           0.624125           3.251020
    3    0         6.400000       -61.9207           0.061167           1.081902           4.001998
 

  Adding cutoff potential to free-atom effective potential.
  Creating atomic-like basis functions for current effective potential.

  Species H                   :

  List of atomic basis orbitals and eigenvalues:
    n    l      energy [Ha]    energy [eV]    outer radius [A]
    1    0        -0.237589        -6.4651       4.527807


  Species C                   :

  List of atomic basis orbitals and eigenvalues:
    n    l      energy [Ha]    energy [eV]    outer radius [A]
    1    0       -10.038835      -273.1706       1.934409
    2    0        -0.502696       -13.6791       4.496620
    2    1        -0.191971        -5.2238       4.551928


  Species N                   :

  List of atomic basis orbitals and eigenvalues:
    n    l      energy [Ha]    energy [eV]    outer radius [A]
    1    0       -14.128000      -384.4424       1.637919
    2    0        -0.681077       -18.5330       4.463241
    2    1        -0.259788        -7.0692       4.518138


  Species O                   :

  List of atomic basis orbitals and eigenvalues:
    n    l      energy [Ha]    energy [eV]    outer radius [A]
    1    0       -18.898188      -514.2459       1.415765
    2    0        -0.878505       -23.9053       4.413171
    2    1        -0.331779        -9.0282       4.522403

  Assembling full basis from fixed parts.
  | Species H :   atomic orbital   1 s accepted.
  | Species H :    hydro orbital   2 s accepted.
  | Species H :    hydro orbital   2 p accepted.
  | Species C :   atomic orbital   1 s accepted.
  | Species C :    hydro orbital   2 s accepted.
  | Species C :   atomic orbital   2 s accepted.
  | Species C :   atomic orbital   2 p accepted.
  | Species C :    hydro orbital   2 p accepted.
  | Species C :    hydro orbital   3 d accepted.
  | Species N :   atomic orbital   1 s accepted.
  | Species N :    hydro orbital   3 s accepted.
  | Species N :   atomic orbital   2 s accepted.
  | Species N :   atomic orbital   2 p accepted.
  | Species N :    hydro orbital   2 p accepted.
  | Species N :    hydro orbital   3 d accepted.
  | Species O :   atomic orbital   1 s accepted.
  | Species O :    hydro orbital   3 s accepted.
  | Species O :   atomic orbital   2 s accepted.
  | Species O :   atomic orbital   2 p accepted.
  | Species O :    hydro orbital   2 p accepted.
  | Species O :    hydro orbital   3 d accepted.
 
  Basis size parameters after reduction:
  | Total number of radial functions:       21
  | Total number of basis functions :      119
 
  Per-task memory consumption for arrays in subroutine allocate_ext:
  |           5.250512MB.
  Testing on-site integration grid accuracy.
  |  Species  Function  <phi|h_atom|phi> (log., in eV)  <phi|h_atom|phi> (rad., in eV)
           1        1                 -6.4663192853                 -6.4651273558
           1        2                 13.7111246313                 13.7170609718
           1        3                 25.2673269279                 25.2674696378
           2        4               -273.1705927641               -273.1705631568
           2        5                -10.7109323383                -10.7107120029
           2        6                 17.4381822266                 17.4352413244
           2        7                 -5.2255326521                 -5.2270484734
           2        8                  8.6835629259                  8.6603288385
           2        9                 27.4952418996                 27.4953360207
           3       10               -384.4424306495               -384.4423701208
           3       11                 12.5842251816                 12.5842222903
           3       12                -15.7264628251                -15.7264433455
           3       13                 -7.0696854293                 -7.0701769954
           3       14                  8.8090390882                  8.7901077751
           3       15                 35.9586762123                 35.9588528632
           4       16               -514.2458688638               -514.2457643834
           4       17                 15.1795651126                 15.1795290741
           4       18                -21.5359799773                -21.5360846186
           4       19                 -9.0283069236                 -9.0284644067
           4       20                  8.3027758564                  8.2834874195
           4       21                 45.8339351984                 45.8338762259

  Preparing densities etc. for the partition functions (integrals / Hartree potential).

  Preparations completed.
  max(cpu_time)          :      0.146 s.
  Wall clock time (cpu1) :      0.146 s.
------------------------------------------------------------

------------------------------------------------------------
          Begin self-consistency loop: Initialization.

          Date     :  20200805, Time     :  182220.225
------------------------------------------------------------

  Initializing index lists of integration centers etc. from given atomic structure:
  | Number of centers in hartree potential         :        13
  | Number of centers in hartree multipole         :        13
  | Number of centers in electron density summation:        13
  | Number of centers in basis integrals           :        13
  | Number of centers in integrals                 :        13
  | Number of centers in hamiltonian               :        13
  Partitioning the integration grid into batches with parallel hashing+maxmin method.
  | Number of batches:      955
  | Maximal batch size:     139
  | Minimal batch size:      66
  | Average batch size:      72.928
  | Standard deviation of batch sizes:      17.623

  Integration load balanced across     1 MPI tasks.
  Work distribution over tasks is as follows:
  Task     0 has      69646 integration points.
  Initializing partition tables, free-atom densities, potentials, etc. across the integration grid (initialize_grid_storage).
  | initialize_grid_storage: Actual outermost partition radius vs. multipole_radius_free
  | (-- VB: in principle, multipole_radius_free should be larger, hence this output)
  | Species        1: Confinement radius =              4.999999999999999 AA, multipole_radius_free =              5.054417573612229 AA.
  | Species        1: outer_partition_radius set to              5.054417573612229 AA .
  | Species        2: Confinement radius =              4.999999999999999 AA, multipole_radius_free =              5.019602836301480 AA.
  | Species        2: outer_partition_radius set to              5.019602836301480 AA .
  | Species        3: Confinement radius =              4.999999999999999 AA, multipole_radius_free =              5.043624274424571 AA.
  | Species        3: outer_partition_radius set to              5.043624274424571 AA .
  | Species        4: Confinement radius =              4.999999999999999 AA, multipole_radius_free =              5.048384829883283 AA.
  | Species        4: outer_partition_radius set to              5.048384829883283 AA .
  | Original list of interatomic distances with          13 x         13 entries is created.
  | Net number of integration points:    69646
  | of which are non-zero points    :    59473
  Renormalizing the initial density to the exact electron count on the 3D integration grid.
  | Initial density: Formal number of electrons (from input files) :      48.0000000000
  | Integrated number of electrons on 3D grid     :      47.9999831518
  | Charge integration error                      :      -0.0000168482
  | Normalization factor for density and gradient :       1.0000003510
  Obtaining max. number of non-zero basis functions in each batch (get_n_compute_maxes).
  | Maximal number of non-zero basis functions:      119 in task     0
  Selecting the method for density update.
  Loop over occupied states selected for charge density update.
  Allocating        0.050 MB for KS_eigenvector
  Integrating Hamiltonian matrix: batch-based integration.
  Time summed over all CPUs for integration: real work        0.500 s, elapsed        0.500 s
  Integrating overlap matrix.
  Time summed over all CPUs for integration: real work        0.211 s, elapsed        0.211 s

  Updating Kohn-Sham eigenvalues and eigenvectors using ELSI and the ELPA eigensolver.
  Overlap matrix is nonsingular
  | Lowest eigenvalue of overlap  :  0.47E-02
  | Highest eigenvalue of overlap :  0.63E+01
  Finished singularity check of overlap matrix
  | Time :     0.002 s
  Finished Cholesky decomposition
  | Time :     0.000 s
  Finished transformation to standard eigenproblem
  | Time :     0.000 s
  Starting LAPACK eigensolver
  Finished solving standard eigenproblem
  | Time :     0.002 s
  Finished back-transformation of eigenvectors
  | Time :     0.000 s

  Obtaining occupation numbers and chemical potential using ELSI.
  | Chemical potential (Fermi level):    -9.64367927eV
  Writing Kohn-Sham eigenvalues.

  State    Occupation    Eigenvalue [Ha]    Eigenvalue [eV]
      1       2.00000         -19.008302         -517.24221
      2       2.00000         -18.977198         -516.39583
      3       2.00000         -14.245961         -387.65232
      4       2.00000         -10.166593         -276.64706
      5       2.00000         -10.141452         -275.96294
      6       2.00000         -10.132135         -275.70942
      7       2.00000          -1.183483          -32.20420
      8       2.00000          -1.099657          -29.92320
      9       2.00000          -0.990769          -26.96021
     10       2.00000          -0.861792          -23.45054
     11       2.00000          -0.751492          -20.44914
     12       2.00000          -0.679421          -18.48799
     13       2.00000          -0.643303          -17.50516
     14       2.00000          -0.610932          -16.62432
     15       2.00000          -0.578615          -15.74491
     16       2.00000          -0.565479          -15.38748
     17       2.00000          -0.549457          -14.95147
     18       2.00000          -0.541371          -14.73145
     19       2.00000          -0.515315          -14.02243
     20       2.00000          -0.490655          -13.35140
     21       2.00000          -0.462472          -12.58449
     22       2.00000          -0.427072          -11.62123
     23       2.00000          -0.416536          -11.33451
     24       2.00000          -0.382062          -10.39645
     25       0.00000          -0.160096           -4.35643
     26       0.00000          -0.074851           -2.03680
     27       0.00000          -0.033613           -0.91466
     28       0.00000          -0.021904           -0.59605
     29       0.00000           0.006230            0.16952
     30       0.00000           0.016932            0.46075
     31       0.00000           0.024689            0.67181
     32       0.00000           0.030502            0.82999
     33       0.00000           0.044647            1.21490
     34       0.00000           0.070607            1.92130
     35       0.00000           0.089758            2.44245
     36       0.00000           0.135084            3.67583
     37       0.00000           0.155759            4.23842
     38       0.00000           0.209770            5.70815
     39       0.00000           0.214039            5.82429
     40       0.00000           0.227357            6.18669
     41       0.00000           0.255032            6.93978
     42       0.00000           0.267040            7.26653
     43       0.00000           0.291783            7.93983
     44       0.00000           0.303137            8.24878
     45       0.00000           0.320024            8.70830
     46       0.00000           0.360926            9.82130
     47       0.00000           0.366761            9.98007
     48       0.00000           0.379747           10.33345
     49       0.00000           0.439705           11.96497
     50       0.00000           0.474824           12.92061
     51       0.00000           0.518282           14.10316
     52       0.00000           0.532674           14.49480
     53       0.00000           0.563006           15.32018

  Highest occupied state (VBM) at    -10.39644826 eV
  | Occupation number:      2.00000000

  Lowest unoccupied state (CBM) at    -4.35642806 eV
  | Occupation number:      0.00000000

  Overall HOMO-LUMO gap:      6.04002020 eV.
  Calculating total energy contributions from superposition of free atom densities.

  Total energy components:
  | Sum of eigenvalues            :        -188.84304603 Ha       -5138.68073555 eV
  | XC energy correction          :         -41.79435278 Ha       -1137.28220330 eV
  | XC potential correction       :          53.72791659 Ha        1462.01099680 eV
  | Free-atom electrostatic energy:        -146.84501413 Ha       -3995.85614135 eV
  | Hartree energy correction     :           0.00000000 Ha           0.00000000 eV
  | vdW energy correction         :           0.00000000 Ha           0.00000000 eV
  | Entropy correction            :           0.00000000 Ha           0.00000000 eV
  | ---------------------------
  | Total energy                  :        -323.75449634 Ha       -8809.80808341 eV
  | Total energy, T -> 0          :        -323.75449634 Ha       -8809.80808341 eV  <-- do not rely on this value for anything but (periodic) metals
  | Electronic free energy        :        -323.75449634 Ha       -8809.80808341 eV

  Derived energy quantities:
  | Kinetic energy                :         320.51243645 Ha        8721.58714536 eV
  | Electrostatic energy          :        -602.47258001 Ha      -16394.11302547 eV
  | Energy correction for multipole
  | error in Hartree potential    :           0.00000000 Ha           0.00000000 eV
  | Sum of eigenvalues per atom                           :        -395.28313350 eV
  | Total energy (T->0) per atom                          :        -677.67754488 eV  <-- do not rely on this value for anything but (periodic) metals
  | Electronic free energy per atom                       :        -677.67754488 eV
  Initialize hartree_potential_storage
  Max. number of atoms included in rho_multipole:           13

  End scf initialization - timings             :  max(cpu_time)    wall_clock(cpu1)
  | Time for scf. initialization               :        1.145 s           1.152 s
  | Boundary condition initialization          :        0.000 s           0.000 s
  | Integration                                :        0.705 s           0.712 s
  | Solution of K.-S. eqns.                    :        0.004 s           0.004 s
  | Grid partitioning                          :        0.109 s           0.109 s
  | Preloading free-atom quantities on grid    :        0.002 s           0.002 s
  | Free-atom superposition energy             :        0.084 s           0.084 s
  | Total energy evaluation                    :        0.000 s           0.000 s

  Partial memory accounting:
  | Current value for overall tracked memory usage on task 0  :           0.165 MB
  | Peak value for overall tracked memory usage on task 0     :           0.678 MB after allocating wave
  | Largest tracked array allocation on task 0 so far         :           0.132 MB  when allocating H_times_psi
  Note:  These values currently only include a subset of arrays which are explicitly tracked.
  The "true" memory usage will be greater.
------------------------------------------------------------

------------------------------------------------------------
          Begin self-consistency iteration #    1

  Date     :  20200805, Time     :  182221.378
------------------------------------------------------------
  Evaluating new KS density.
  Integration grid: deviation in total charge (<rho> - N_e) =   5.684342E-14
  Pulay mixing of updated and previous charge densities.

  Evaluating partitioned Hartree potential by multipole expansion.
  | Analytical far-field extrapolation by fixed multipoles:
  | Hartree multipole sum: apparent total charge =  -0.124698E-03
  Summing up the Hartree potential.
  Time summed over all CPUs for potential: real work        0.280 s, elapsed        0.280 s
  | RMS charge density error from multipole expansion :   0.592486E-02

  Integrating Hamiltonian matrix: batch-based integration.
  Time summed over all CPUs for integration: real work        0.493 s, elapsed        0.493 s

  Updating Kohn-Sham eigenvalues and eigenvectors using ELSI and the ELPA eigensolver.
  Finished Cholesky decomposition
  | Time :     0.000 s
  Finished transformation to standard eigenproblem
  | Time :     0.000 s
  Starting LAPACK eigensolver
  Finished solving standard eigenproblem
  | Time :     0.001 s
  Finished back-transformation of eigenvectors
  | Time :     0.000 s

  Obtaining occupation numbers and chemical potential using ELSI.
  | Chemical potential (Fermi level):    -4.61121823eV
  Writing Kohn-Sham eigenvalues.

  State    Occupation    Eigenvalue [Ha]    Eigenvalue [eV]
      1       2.00000         -18.904002         -514.40406
      2       2.00000         -18.838062         -512.60975
      3       2.00000         -14.099266         -383.66054
      4       2.00000         -10.118874         -275.34856
      5       2.00000         -10.064670         -273.87361
      6       2.00000         -10.029785         -272.92434
      7       2.00000          -1.136408          -30.92323
      8       2.00000          -1.037748          -28.23855
      9       2.00000          -0.923707          -25.13534
     10       2.00000          -0.796372          -21.67039
     11       2.00000          -0.700248          -19.05472
     12       2.00000          -0.637064          -17.33540
     13       2.00000          -0.593510          -16.15023
     14       2.00000          -0.549788          -14.96050
     15       2.00000          -0.527266          -14.34765
     16       2.00000          -0.502251          -13.66694
     17       2.00000          -0.491388          -13.37134
     18       2.00000          -0.479017          -13.03471
     19       2.00000          -0.450028          -12.24588
     20       2.00000          -0.436446          -11.87629
     21       2.00000          -0.402764          -10.95975
     22       2.00000          -0.373079          -10.15200
     23       2.00000          -0.345229           -9.39416
     24       2.00000          -0.308800           -8.40289
     25       0.00000          -0.125667           -3.41958
     26       0.00000          -0.058034           -1.57918
     27       0.00000          -0.003736           -0.10167
     28       0.00000           0.012735            0.34654
     29       0.00000           0.041977            1.14224
     30       0.00000           0.053570            1.45773
     31       0.00000           0.061690            1.67868
     32       0.00000           0.071838            1.95481
     33       0.00000           0.082906            2.25598
     34       0.00000           0.106261            2.89152
     35       0.00000           0.124706            3.39343
     36       0.00000           0.163823            4.45786
     37       0.00000           0.178167            4.84818
     38       0.00000           0.236086            6.42423
     39       0.00000           0.246574            6.70962
     40       0.00000           0.263708            7.17587
     41       0.00000           0.284675            7.74639
     42       0.00000           0.302896            8.24223
     43       0.00000           0.326563            8.88623
     44       0.00000           0.341412            9.29030
     45       0.00000           0.355167            9.66459
     46       0.00000           0.393679           10.71254
     47       0.00000           0.407010           11.07532
     48       0.00000           0.419840           11.42442
     49       0.00000           0.477734           12.99979
     50       0.00000           0.509747           13.87092
     51       0.00000           0.551482           15.00659
     52       0.00000           0.569174           15.48801
     53       0.00000           0.592108           16.11207

  Highest occupied state (VBM) at     -8.40288769 eV
  | Occupation number:      2.00000000

  Lowest unoccupied state (CBM) at    -3.41957583 eV
  | Occupation number:      0.00000000

  Overall HOMO-LUMO gap:      4.98331185 eV.

  Total energy components:
  | Sum of eigenvalues            :        -185.49154132 Ha       -5047.48165238 eV
  | XC energy correction          :         -42.12252037 Ha       -1146.21209781 eV
  | XC potential correction       :          54.15470350 Ha        1473.62445934 eV
  | Free-atom electrostatic energy:        -146.84501413 Ha       -3995.85614135 eV
  | Hartree energy correction     :          -3.26478971 Ha         -88.83944805 eV
  | vdW energy correction         :           0.00000000 Ha           0.00000000 eV
  | Entropy correction            :           0.00000000 Ha           0.00000000 eV
  | ---------------------------
  | Total energy                  :        -323.56916203 Ha       -8804.76488026 eV
  | Total energy, T -> 0          :        -323.56916203 Ha       -8804.76488026 eV  <-- do not rely on this value for anything but (periodic) metals
  | Electronic free energy        :        -323.56916203 Ha       -8804.76488026 eV

  Derived energy quantities:
  | Kinetic energy                :         322.30753793 Ha        8770.43434175 eV
  | Electrostatic energy          :        -603.75417959 Ha      -16428.98712419 eV
  | Energy correction for multipole
  | error in Hartree potential    :           0.01207116 Ha           0.32847303 eV
  | Sum of eigenvalues per atom                           :        -388.26781941 eV
  | Total energy (T->0) per atom                          :        -677.28960617 eV  <-- do not rely on this value for anything but (periodic) metals
  | Electronic free energy per atom                       :        -677.28960617 eV

  Self-consistency convergence accuracy:
  | Change of charge density      :  0.5870E+00
  | Change of sum of eigenvalues  :  0.9120E+02 eV
  | Change of total energy        :  0.5043E+01 eV

  End self-consistency iteration #     1       :  max(cpu_time)    wall_clock(cpu1)
  | Time for this iteration                    :        1.187 s           1.187 s
  | Charge density update                      :        0.396 s           0.396 s
  | Density mixing                             :        0.006 s           0.006 s
  | Hartree multipole update                   :        0.009 s           0.008 s
  | Hartree multipole summation                :        0.281 s           0.281 s
  | Integration                                :        0.493 s           0.494 s
  | Solution of K.-S. eqns.                    :        0.002 s           0.002 s
  | Total energy evaluation                    :        0.000 s           0.000 s

  Partial memory accounting:
  | Current value for overall tracked memory usage on task 0  :           0.165 MB
  | Peak value for overall tracked memory usage on task 0     :           0.695 MB after allocating gradient_basis_wave
  | Largest tracked array allocation on task 0 so far         :           0.397 MB  when allocating gradient_basis_wave
  Note:  These values currently only include a subset of arrays which are explicitly tracked.
  The "true" memory usage will be greater.
------------------------------------------------------------

------------------------------------------------------------
          Begin self-consistency iteration #    2

  Date     :  20200805, Time     :  182222.566
------------------------------------------------------------
  Evaluating new KS density.
  Integration grid: deviation in total charge (<rho> - N_e) =   1.421085E-14
  Pulay mixing of updated and previous charge densities.

  Evaluating partitioned Hartree potential by multipole expansion.
  | Analytical far-field extrapolation by fixed multipoles:
  | Hartree multipole sum: apparent total charge =  -0.261198E-03
  Summing up the Hartree potential.
  Time summed over all CPUs for potential: real work        0.280 s, elapsed        0.280 s
  | RMS charge density error from multipole expansion :   0.139703E-01

  Integrating Hamiltonian matrix: batch-based integration.
  Time summed over all CPUs for integration: real work        0.493 s, elapsed        0.493 s

  Updating Kohn-Sham eigenvalues and eigenvectors using ELSI and the ELPA eigensolver.
  Finished Cholesky decomposition
  | Time :     0.000 s
  Finished transformation to standard eigenproblem
  | Time :     0.000 s
  Starting LAPACK eigensolver
  Finished solving standard eigenproblem
  | Time :     0.001 s
  Finished back-transformation of eigenvectors
  | Time :     0.000 s

  Obtaining occupation numbers and chemical potential using ELSI.
  | Chemical potential (Fermi level):    -3.53814338eV
  Highest occupied state (VBM) at     -6.45397571 eV
  | Occupation number:      2.00000000

  Lowest unoccupied state (CBM) at    -2.22001387 eV
  | Occupation number:      0.00000000

  Overall HOMO-LUMO gap:      4.23396184 eV.

  Checking to see if s.c.f. parameters should be adjusted.

  Total energy components:
  | Sum of eigenvalues            :        -181.99419088 Ha       -4952.31390473 eV
  | XC energy correction          :         -42.47770395 Ha       -1155.87713476 eV
  | XC potential correction       :          54.61505384 Ha        1486.15122955 eV
  | Free-atom electrostatic energy:        -146.84501413 Ha       -3995.85614135 eV
  | Hartree energy correction     :          -6.78743996 Ha        -184.69563858 eV
  | vdW energy correction         :           0.00000000 Ha           0.00000000 eV
  | Entropy correction            :           0.00000000 Ha           0.00000000 eV
  | ---------------------------
  | Total energy                  :        -323.48929507 Ha       -8802.59158987 eV
  | Total energy, T -> 0          :        -323.48929507 Ha       -8802.59158987 eV  <-- do not rely on this value for anything but (periodic) metals
  | Electronic free energy        :        -323.48929507 Ha       -8802.59158987 eV

  Derived energy quantities:
  | Kinetic energy                :         323.61486372 Ha        8806.00848662 eV
  | Electrostatic energy          :        -604.62645485 Ha      -16452.72294174 eV
  | Energy correction for multipole
  | error in Hartree potential    :           0.02635102 Ha           0.71704787 eV
  | Sum of eigenvalues per atom                           :        -380.94722344 eV
  | Total energy (T->0) per atom                          :        -677.12242999 eV  <-- do not rely on this value for anything but (periodic) metals
  | Electronic free energy per atom                       :        -677.12242999 eV

  Self-consistency convergence accuracy:
  | Change of charge density      :  0.3676E+00
  | Change of sum of eigenvalues  :  0.9517E+02 eV
  | Change of total energy        :  0.2173E+01 eV

  End self-consistency iteration #     2       :  max(cpu_time)    wall_clock(cpu1)
  | Time for this iteration                    :        1.178 s           1.179 s
  | Charge density update                      :        0.388 s           0.388 s
  | Density mixing                             :        0.007 s           0.007 s
  | Hartree multipole update                   :        0.009 s           0.009 s
  | Hartree multipole summation                :        0.280 s           0.280 s
  | Integration                                :        0.493 s           0.492 s
  | Solution of K.-S. eqns.                    :        0.002 s           0.002 s
  | Total energy evaluation                    :        0.000 s           0.000 s

  Partial memory accounting:
  | Current value for overall tracked memory usage on task 0  :           0.166 MB
  | Peak value for overall tracked memory usage on task 0     :           0.695 MB after allocating gradient_basis_wave
  | Largest tracked array allocation on task 0 so far         :           0.397 MB  when allocating gradient_basis_wave
  Note:  These values currently only include a subset of arrays which are explicitly tracked.
  The "true" memory usage will be greater.
------------------------------------------------------------

------------------------------------------------------------
          Begin self-consistency iteration #    3

  Date     :  20200805, Time     :  182223.745
------------------------------------------------------------
  Evaluating new KS density.
  Integration grid: deviation in total charge (<rho> - N_e) =  -3.552714E-14
  Pulay mixing of updated and previous charge densities.

  Evaluating partitioned Hartree potential by multipole expansion.
  | Analytical far-field extrapolation by fixed multipoles:
  | Hartree multipole sum: apparent total charge =  -0.358876E-03
  Summing up the Hartree potential.
  Time summed over all CPUs for potential: real work        0.280 s, elapsed        0.280 s
  | RMS charge density error from multipole expansion :   0.219073E-01

  Integrating Hamiltonian matrix: batch-based integration.
  Time summed over all CPUs for integration: real work        0.492 s, elapsed        0.492 s

  Updating Kohn-Sham eigenvalues and eigenvectors using ELSI and the ELPA eigensolver.
  Finished Cholesky decomposition
  | Time :     0.000 s
  Finished transformation to standard eigenproblem
  | Time :     0.000 s
  Starting LAPACK eigensolver
  Finished solving standard eigenproblem
  | Time :     0.001 s
  Finished back-transformation of eigenvectors
  | Time :     0.000 s

  Obtaining occupation numbers and chemical potential using ELSI.
  | Chemical potential (Fermi level):    -2.89506788eV
  Highest occupied state (VBM) at     -5.77825839 eV
  | Occupation number:      2.00000000

  Lowest unoccupied state (CBM) at    -1.53527951 eV
  | Occupation number:      0.00000000

  Overall HOMO-LUMO gap:      4.24297888 eV.

  Total energy components:
  | Sum of eigenvalues            :        -180.66000894 Ha       -4916.00896705 eV
  | XC energy correction          :         -42.63260912 Ha       -1160.09231903 eV
  | XC potential correction       :          54.81270530 Ha        1491.52959953 eV
  | Free-atom electrostatic energy:        -146.84501413 Ha       -3995.85614135 eV
  | Hartree energy correction     :          -8.15105034 Ha        -221.80136495 eV
  | vdW energy correction         :           0.00000000 Ha           0.00000000 eV
  | Entropy correction            :           0.00000000 Ha           0.00000000 eV
  | ---------------------------
  | Total energy                  :        -323.47597723 Ha       -8802.22919286 eV
  | Total energy, T -> 0          :        -323.47597723 Ha       -8802.22919286 eV  <-- do not rely on this value for anything but (periodic) metals
  | Electronic free energy        :        -323.47597723 Ha       -8802.22919286 eV

  Derived energy quantities:
  | Kinetic energy                :         323.25394366 Ha        8796.18735212 eV
  | Electrostatic energy          :        -604.09731177 Ha      -16438.32422595 eV
  | Energy correction for multipole
  | error in Hartree potential    :           0.03708166 Ha           1.00904339 eV
  | Sum of eigenvalues per atom                           :        -378.15453593 eV
  | Total energy (T->0) per atom                          :        -677.09455330 eV  <-- do not rely on this value for anything but (periodic) metals
  | Electronic free energy per atom                       :        -677.09455330 eV

  Self-consistency convergence accuracy:
  | Change of charge density      :  0.2076E+00
  | Change of sum of eigenvalues  :  0.3630E+02 eV
  | Change of total energy        :  0.3624E+00 eV

  End self-consistency iteration #     3       :  max(cpu_time)    wall_clock(cpu1)
  | Time for this iteration                    :        1.180 s           1.181 s
  | Charge density update                      :        0.388 s           0.388 s
  | Density mixing                             :        0.008 s           0.008 s
  | Hartree multipole update                   :        0.009 s           0.009 s
  | Hartree multipole summation                :        0.280 s           0.281 s
  | Integration                                :        0.493 s           0.492 s
  | Solution of K.-S. eqns.                    :        0.002 s           0.002 s
  | Total energy evaluation                    :        0.000 s           0.001 s

  Partial memory accounting:
  | Current value for overall tracked memory usage on task 0  :           0.166 MB
  | Peak value for overall tracked memory usage on task 0     :           0.695 MB after allocating gradient_basis_wave
  | Largest tracked array allocation on task 0 so far         :           0.397 MB  when allocating gradient_basis_wave
  Note:  These values currently only include a subset of arrays which are explicitly tracked.
  The "true" memory usage will be greater.
------------------------------------------------------------

------------------------------------------------------------
          Begin self-consistency iteration #    4

  Date     :  20200805, Time     :  182224.926
------------------------------------------------------------
  Evaluating new KS density.
  Integration grid: deviation in total charge (<rho> - N_e) =   0.000000E+00
  Pulay mixing of updated and previous charge densities.

  Evaluating partitioned Hartree potential by multipole expansion.
  | Analytical far-field extrapolation by fixed multipoles:
  | Hartree multipole sum: apparent total charge =  -0.392945E-03
  Summing up the Hartree potential.
  Time summed over all CPUs for potential: real work        0.280 s, elapsed        0.280 s
  | RMS charge density error from multipole expansion :   0.255040E-01

  Integrating Hamiltonian matrix: batch-based integration.
  Time summed over all CPUs for integration: real work        0.493 s, elapsed        0.493 s

  Updating Kohn-Sham eigenvalues and eigenvectors using ELSI and the ELPA eigensolver.
  Finished Cholesky decomposition
  | Time :     0.000 s
  Finished transformation to standard eigenproblem
  | Time :     0.000 s
  Starting LAPACK eigensolver
  Finished solving standard eigenproblem
  | Time :     0.002 s
  Finished back-transformation of eigenvectors
  | Time :     0.000 s

  Obtaining occupation numbers and chemical potential using ELSI.
  | Chemical potential (Fermi level):    -2.78573041eV
  Highest occupied state (VBM) at     -5.59185799 eV
  | Occupation number:      2.00000000

  Lowest unoccupied state (CBM) at    -1.43782966 eV
  | Occupation number:      0.00000000

  Overall HOMO-LUMO gap:      4.15402833 eV.

  Total energy components:
  | Sum of eigenvalues            :        -180.53171577 Ha       -4912.51793224 eV
  | XC energy correction          :         -42.67096166 Ha       -1161.13594460 eV
  | XC potential correction       :          54.86082997 Ha        1492.83913826 eV
  | Free-atom electrostatic energy:        -146.84501413 Ha       -3995.85614135 eV
  | Hartree energy correction     :          -8.28799946 Ha        -225.52794012 eV
  | vdW energy correction         :           0.00000000 Ha           0.00000000 eV
  | Entropy correction            :           0.00000000 Ha           0.00000000 eV
  | ---------------------------
  | Total energy                  :        -323.47486105 Ha       -8802.19882005 eV
  | Total energy, T -> 0          :        -323.47486105 Ha       -8802.19882005 eV  <-- do not rely on this value for anything but (periodic) metals
  | Electronic free energy        :        -323.47486105 Ha       -8802.19882005 eV

  Derived energy quantities:
  | Kinetic energy                :         322.84062265 Ha        8784.94031502 eV
  | Electrostatic energy          :        -603.64452204 Ha      -16426.00319048 eV
  | Energy correction for multipole
  | error in Hartree potential    :           0.04139479 Ha           1.12640944 eV
  | Sum of eigenvalues per atom                           :        -377.88599479 eV
  | Total energy (T->0) per atom                          :        -677.09221693 eV  <-- do not rely on this value for anything but (periodic) metals
  | Electronic free energy per atom                       :        -677.09221693 eV

  Self-consistency convergence accuracy:
  | Change of charge density      :  0.7019E-01
  | Change of sum of eigenvalues  :  0.3491E+01 eV
  | Change of total energy        :  0.3037E-01 eV

  End self-consistency iteration #     4       :  max(cpu_time)    wall_clock(cpu1)
  | Time for this iteration                    :        1.181 s           1.182 s
  | Charge density update                      :        0.388 s           0.388 s
  | Density mixing                             :        0.009 s           0.009 s
  | Hartree multipole update                   :        0.009 s           0.009 s
  | Hartree multipole summation                :        0.280 s           0.280 s
  | Integration                                :        0.493 s           0.493 s
  | Solution of K.-S. eqns.                    :        0.002 s           0.002 s
  | Total energy evaluation                    :        0.000 s           0.000 s

  Partial memory accounting:
  | Current value for overall tracked memory usage on task 0  :           0.166 MB
  | Peak value for overall tracked memory usage on task 0     :           0.696 MB after allocating gradient_basis_wave
  | Largest tracked array allocation on task 0 so far         :           0.397 MB  when allocating gradient_basis_wave
  Note:  These values currently only include a subset of arrays which are explicitly tracked.
  The "true" memory usage will be greater.
------------------------------------------------------------

------------------------------------------------------------
          Begin self-consistency iteration #    5

  Date     :  20200805, Time     :  182226.108
------------------------------------------------------------
  Evaluating new KS density.
  Integration grid: deviation in total charge (<rho> - N_e) =   6.394885E-14
  Pulay mixing of updated and previous charge densities.

  Evaluating partitioned Hartree potential by multipole expansion.
  | Analytical far-field extrapolation by fixed multipoles:
  | Hartree multipole sum: apparent total charge =  -0.386974E-03
  Summing up the Hartree potential.
  Time summed over all CPUs for potential: real work        0.280 s, elapsed        0.280 s
  | RMS charge density error from multipole expansion :   0.252585E-01

  Integrating Hamiltonian matrix: batch-based integration.
  Time summed over all CPUs for integration: real work        0.492 s, elapsed        0.492 s

  Updating Kohn-Sham eigenvalues and eigenvectors using ELSI and the ELPA eigensolver.
  Finished Cholesky decomposition
  | Time :     0.000 s
  Finished transformation to standard eigenproblem
  | Time :     0.000 s
  Starting LAPACK eigensolver
  Finished solving standard eigenproblem
  | Time :     0.001 s
  Finished back-transformation of eigenvectors
  | Time :     0.000 s

  Obtaining occupation numbers and chemical potential using ELSI.
  | Chemical potential (Fermi level):    -2.84150050eV
  Highest occupied state (VBM) at     -5.68997715 eV
  | Occupation number:      2.00000000

  Lowest unoccupied state (CBM) at    -1.53039940 eV
  | Occupation number:      0.00000000

  Overall HOMO-LUMO gap:      4.15957775 eV.

  Total energy components:
  | Sum of eigenvalues            :        -180.72176876 Ha       -4917.68953722 eV
  | XC energy correction          :         -42.64706529 Ha       -1160.48569136 eV
  | XC potential correction       :          54.82983314 Ha        1491.99567177 eV
  | Free-atom electrostatic energy:        -146.84501413 Ha       -3995.85614135 eV
  | Hartree energy correction     :          -8.09055506 Ha        -220.15520460 eV
  | vdW energy correction         :           0.00000000 Ha           0.00000000 eV
  | Entropy correction            :           0.00000000 Ha           0.00000000 eV
  | ---------------------------
  | Total energy                  :        -323.47457009 Ha       -8802.19090276 eV
  | Total energy, T -> 0          :        -323.47457009 Ha       -8802.19090276 eV  <-- do not rely on this value for anything but (periodic) metals
  | Electronic free energy        :        -323.47457009 Ha       -8802.19090276 eV

  Derived energy quantities:
  | Kinetic energy                :         322.72953839 Ha        8781.91755860 eV
  | Electrostatic energy          :        -603.55704319 Ha      -16423.62277000 eV
  | Energy correction for multipole
  | error in Hartree potential    :           0.04074652 Ha           1.10876931 eV
  | Sum of eigenvalues per atom                           :        -378.28381056 eV
  | Total energy (T->0) per atom                          :        -677.09160790 eV  <-- do not rely on this value for anything but (periodic) metals
  | Electronic free energy per atom                       :        -677.09160790 eV

  Self-consistency convergence accuracy:
  | Change of charge density      :  0.2109E-01
  | Change of sum of eigenvalues  : -0.5172E+01 eV
  | Change of total energy        :  0.7917E-02 eV

  End self-consistency iteration #     5       :  max(cpu_time)    wall_clock(cpu1)
  | Time for this iteration                    :        1.183 s           1.184 s
  | Charge density update                      :        0.389 s           0.389 s
  | Density mixing                             :        0.011 s           0.011 s
  | Hartree multipole update                   :        0.009 s           0.009 s
  | Hartree multipole summation                :        0.280 s           0.280 s
  | Integration                                :        0.492 s           0.493 s
  | Solution of K.-S. eqns.                    :        0.002 s           0.002 s
  | Total energy evaluation                    :        0.000 s           0.000 s

  Partial memory accounting:
  | Current value for overall tracked memory usage on task 0  :           0.166 MB
  | Peak value for overall tracked memory usage on task 0     :           0.696 MB after allocating gradient_basis_wave
  | Largest tracked array allocation on task 0 so far         :           0.397 MB  when allocating gradient_basis_wave
  Note:  These values currently only include a subset of arrays which are explicitly tracked.
  The "true" memory usage will be greater.
------------------------------------------------------------

------------------------------------------------------------
          Begin self-consistency iteration #    6

  Date     :  20200805, Time     :  182227.293
------------------------------------------------------------
  Evaluating new KS density.
  Integration grid: deviation in total charge (<rho> - N_e) =  -2.842171E-14
  Pulay mixing of updated and previous charge densities.

  Evaluating partitioned Hartree potential by multipole expansion.
  | Analytical far-field extrapolation by fixed multipoles:
  | Hartree multipole sum: apparent total charge =  -0.390771E-03
  Summing up the Hartree potential.
  Time summed over all CPUs for potential: real work        0.280 s, elapsed        0.280 s
  | RMS charge density error from multipole expansion :   0.256974E-01

  Integrating Hamiltonian matrix: batch-based integration.
  Time summed over all CPUs for integration: real work        0.492 s, elapsed        0.492 s

  Updating Kohn-Sham eigenvalues and eigenvectors using ELSI and the ELPA eigensolver.
  Finished Cholesky decomposition
  | Time :     0.000 s
  Finished transformation to standard eigenproblem
  | Time :     0.000 s
  Starting LAPACK eigensolver
  Finished solving standard eigenproblem
  | Time :     0.002 s
  Finished back-transformation of eigenvectors
  | Time :     0.000 s

  Obtaining occupation numbers and chemical potential using ELSI.
  | Chemical potential (Fermi level):    -2.84104409eV
  Highest occupied state (VBM) at     -5.65921448 eV
  | Occupation number:      2.00000000

  Lowest unoccupied state (CBM) at    -1.54551864 eV
  | Occupation number:      0.00000000

  Overall HOMO-LUMO gap:      4.11369584 eV.

  Total energy components:
  | Sum of eigenvalues            :        -180.71949715 Ha       -4917.62772365 eV
  | XC energy correction          :         -42.64705731 Ha       -1160.48547424 eV
  | XC potential correction       :          54.82978978 Ha        1491.99449168 eV
  | Free-atom electrostatic energy:        -146.84501413 Ha       -3995.85614135 eV
  | Hartree energy correction     :          -8.09274178 Ha        -220.21470830 eV
  | vdW energy correction         :           0.00000000 Ha           0.00000000 eV
  | Entropy correction            :           0.00000000 Ha           0.00000000 eV
  | ---------------------------
  | Total energy                  :        -323.47452059 Ha       -8802.18955585 eV
  | Total energy, T -> 0          :        -323.47452059 Ha       -8802.18955585 eV  <-- do not rely on this value for anything but (periodic) metals
  | Electronic free energy        :        -323.47452059 Ha       -8802.18955585 eV

  Derived energy quantities:
  | Kinetic energy                :         322.65449372 Ha        8779.87548939 eV
  | Electrostatic energy          :        -603.48195701 Ha      -16421.57957101 eV
  | Energy correction for multipole
  | error in Hartree potential    :           0.04112862 Ha           1.11916658 eV
  | Sum of eigenvalues per atom                           :        -378.27905567 eV
  | Total energy (T->0) per atom                          :        -677.09150430 eV  <-- do not rely on this value for anything but (periodic) metals
  | Electronic free energy per atom                       :        -677.09150430 eV

  Self-consistency convergence accuracy:
  | Change of charge density      :  0.1091E-01
  | Change of sum of eigenvalues  :  0.6181E-01 eV
  | Change of total energy        :  0.1347E-02 eV

  End self-consistency iteration #     6       :  max(cpu_time)    wall_clock(cpu1)
  | Time for this iteration                    :        1.184 s           1.184 s
  | Charge density update                      :        0.388 s           0.388 s
  | Density mixing                             :        0.012 s           0.012 s
  | Hartree multipole update                   :        0.009 s           0.009 s
  | Hartree multipole summation                :        0.280 s           0.280 s
  | Integration                                :        0.492 s           0.492 s
  | Solution of K.-S. eqns.                    :        0.002 s           0.003 s
  | Total energy evaluation                    :        0.000 s           0.000 s

  Partial memory accounting:
  | Current value for overall tracked memory usage on task 0  :           0.166 MB
  | Peak value for overall tracked memory usage on task 0     :           0.696 MB after allocating gradient_basis_wave
  | Largest tracked array allocation on task 0 so far         :           0.397 MB  when allocating gradient_basis_wave
  Note:  These values currently only include a subset of arrays which are explicitly tracked.
  The "true" memory usage will be greater.
------------------------------------------------------------

------------------------------------------------------------
          Begin self-consistency iteration #    7

  Date     :  20200805, Time     :  182228.477
------------------------------------------------------------
  Evaluating new KS density.
  Integration grid: deviation in total charge (<rho> - N_e) =   4.973799E-14
  Pulay mixing of updated and previous charge densities.

  Evaluating partitioned Hartree potential by multipole expansion.
  | Analytical far-field extrapolation by fixed multipoles:
  | Hartree multipole sum: apparent total charge =  -0.391534E-03
  Summing up the Hartree potential.
  Time summed over all CPUs for potential: real work        0.280 s, elapsed        0.280 s
  | RMS charge density error from multipole expansion :   0.257978E-01

  Integrating Hamiltonian matrix: batch-based integration.
  Time summed over all CPUs for integration: real work        0.493 s, elapsed        0.493 s

  Updating Kohn-Sham eigenvalues and eigenvectors using ELSI and the ELPA eigensolver.
  Finished Cholesky decomposition
  | Time :     0.000 s
  Finished transformation to standard eigenproblem
  | Time :     0.000 s
  Starting LAPACK eigensolver
  Finished solving standard eigenproblem
  | Time :     0.002 s
  Finished back-transformation of eigenvectors
  | Time :     0.000 s

[...]
  |   Hirshfeld dipole moment :      0.05638664
  |   Hirshfeld second moments:      0.01081130      -0.03187851      -0.01965853
  |                                 -0.03187851      -0.02078410       0.00991248
  |                                 -0.01965853       0.00991248      -0.01353803
  ----------------------------------------------------------------------
  | Atom    12: O
  |   Hirshfeld charge        :     -0.15331309
  |   Free atom volume        :     23.61338643
  |   Hirshfeld volume        :     20.90698635
  |   Hirshfeld dipole vector :      0.00647435       0.04409855       0.00267130
  |   Hirshfeld dipole moment :      0.04465126
  |   Hirshfeld second moments:      0.10672909      -0.01589443       0.01184516
  |                                 -0.01589443       0.03074543       0.00886937
  |                                  0.01184516       0.00886937       0.03639490
  ----------------------------------------------------------------------
  | Atom    13: H
  |   Hirshfeld charge        :      0.18249690
  |   Free atom volume        :      9.95071624
  |   Hirshfeld volume        :      6.13080455
  |   Hirshfeld dipole vector :     -0.11184948       0.05466771      -0.00979586
  |   Hirshfeld dipole moment :      0.12487923
  |   Hirshfeld second moments:      0.12466191       0.00031326       0.00184649
  |                                  0.00031326       0.10689688       0.01027174
  |                                  0.00184649       0.01027174       0.11738124
  ----------------------------------------------------------------------


  Total energy components:
  | Sum of eigenvalues            :        -180.71796040 Ha       -4917.58590642 eV
  | XC energy correction          :         -42.64397060 Ha       -1160.40148055 eV
  | XC potential correction       :          54.82587708 Ha        1491.88802187 eV
  | Free-atom electrostatic energy:        -146.84501413 Ha       -3995.85614135 eV
  | Hartree energy correction     :          -8.09342820 Ha        -220.23338655 eV
  | vdW energy correction         :          -0.00332827 Ha          -0.09056680 eV
  | Entropy correction            :           0.00000000 Ha           0.00000000 eV
  | ---------------------------
  | Total energy                  :        -323.47782450 Ha       -8802.27945979 eV
  | Total energy, T -> 0          :        -323.47782450 Ha       -8802.27945979 eV  <-- do not rely on this value for anything but (periodic) metals
  | Electronic free energy        :        -323.47782450 Ha       -8802.27945979 eV

  Derived energy quantities:
  | Kinetic energy                :         322.61841301 Ha        8778.89368331 eV
  | Electrostatic energy          :        -603.44893865 Ha      -16420.68109575 eV
  | Energy correction for multipole
  | error in Hartree potential    :           0.04115724 Ha           1.11994559 eV
  | Sum of eigenvalues per atom                           :        -378.27583896 eV
  | Total energy (T->0) per atom                          :        -677.09841998 eV  <-- do not rely on this value for anything but (periodic) metals
  | Electronic free energy per atom                       :        -677.09841998 eV

  atomic forces [eV/Ang]:
  -----------------------
  atom #    1
   Hellmann-Feynman              :  0.245929E+00  0.350388E-01  0.995636E+00
   Ionic forces                  :  0.000000E+00  0.000000E+00  0.000000E+00
   Multipole                     :  0.328780E-01  0.122379E+00 -0.205816E+00
   Pulay + GGA                   : -0.773224E+00  0.534439E-01 -0.133889E+01
   Van der Waals                 :  0.408232E-02  0.282951E-02 -0.135986E-02
   ----------------------------------------------------------------
   Total forces(   1)            : -0.490334E+00  0.213691E+00 -0.550433E+00
  atom #    2
   Hellmann-Feynman              :  0.235293E+00  0.154407E-01 -0.200772E-01
   Ionic forces                  :  0.000000E+00  0.000000E+00  0.000000E+00
   Multipole                     :  0.189669E+00  0.137853E-01  0.146260E-01
   Pulay + GGA                   : -0.144916E+00  0.185845E-01  0.434645E-01
   Van der Waals                 :  0.350860E-02 -0.468809E-02 -0.639187E-02
   ----------------------------------------------------------------
   Total forces(   2)            :  0.283555E+00  0.431223E-01  0.316215E-01
  atom #    3
   Hellmann-Feynman              : -0.331158E+01  0.107143E+02 -0.129089E+01
   Ionic forces                  :  0.000000E+00  0.000000E+00  0.000000E+00
   Multipole                     : -0.309811E+00  0.235928E+00 -0.107135E+01
   Pulay + GGA                   :  0.406836E+01 -0.102844E+02  0.292840E+01
   Van der Waals                 :  0.624200E-02 -0.227757E-02 -0.108871E-01
   ----------------------------------------------------------------
   Total forces(   3)            :  0.453215E+00  0.663587E+00  0.555276E+00
  atom #    4
   Hellmann-Feynman              : -0.163253E+00 -0.355266E+00 -0.149017E+00
   Ionic forces                  :  0.000000E+00  0.000000E+00  0.000000E+00
   Multipole                     :  0.377470E-01 -0.335530E-01 -0.106754E+00
   Pulay + GGA                   : -0.167089E+00  0.135606E+00  0.111674E+00
   Van der Waals                 : -0.443616E-02  0.137906E-02  0.429758E-02
   ----------------------------------------------------------------
   Total forces(   4)            : -0.297031E+00 -0.251834E+00 -0.139800E+00
  atom #    5
   Hellmann-Feynman              :  0.131806E+00 -0.197596E+00 -0.380536E+00
   Ionic forces                  :  0.000000E+00  0.000000E+00  0.000000E+00
   Multipole                     : -0.633380E-01 -0.621060E-01 -0.735243E-01
   Pulay + GGA                   :  0.195524E+00  0.188121E+00 -0.504698E-01
   Van der Waals                 :  0.295328E-04  0.215691E-02  0.287822E-03
   ----------------------------------------------------------------
   Total forces(   5)            :  0.264022E+00 -0.694250E-01 -0.504242E+00
  atom #    6
   Hellmann-Feynman              :  0.328327E+00 -0.423360E+00  0.516269E+00
   Ionic forces                  :  0.000000E+00  0.000000E+00  0.000000E+00
   Multipole                     : -0.124782E+00  0.620740E+00  0.233265E+00
   Pulay + GGA                   :  0.150712E-01 -0.518431E+00 -0.568701E+00
   Van der Waals                 : -0.296507E-02  0.466725E-02 -0.415257E-02
   ----------------------------------------------------------------
   Total forces(   6)            :  0.215651E+00 -0.316384E+00  0.176681E+00
  atom #    7
   Hellmann-Feynman              : -0.240614E+00 -0.413674E-01 -0.468648E-01
   Ionic forces                  :  0.000000E+00  0.000000E+00  0.000000E+00
   Multipole                     : -0.116800E+00  0.508328E-01  0.230210E-01
   Pulay + GGA                   :  0.116409E+00  0.453754E-01 -0.103367E-02
   Van der Waals                 : -0.197141E-02 -0.169896E-02  0.189284E-02
   ----------------------------------------------------------------
   Total forces(   7)            : -0.242977E+00  0.531418E-01 -0.229846E-01
  atom #    8
   Hellmann-Feynman              :  0.455095E-01 -0.539591E-01  0.180045E+00
   Ionic forces                  :  0.000000E+00  0.000000E+00  0.000000E+00
   Multipole                     :  0.175648E-01  0.665015E-01  0.123996E+00
   Pulay + GGA                   : -0.383331E-01 -0.359524E-01 -0.872884E-01
   Van der Waals                 : -0.297668E-02  0.111320E-01  0.143085E-02
   ----------------------------------------------------------------
   Total forces(   8)            :  0.217644E-01 -0.122780E-01  0.218184E+00
  atom #    9
   Hellmann-Feynman              :  0.661817E-01  0.132724E-01 -0.180123E+00
   Ionic forces                  :  0.000000E+00  0.000000E+00  0.000000E+00
   Multipole                     :  0.156235E-01  0.131057E+00 -0.128075E-01
   Pulay + GGA                   : -0.590405E-01 -0.105687E+00  0.249693E-01
   Van der Waals                 : -0.231421E-02  0.214667E-02  0.334570E-02
   ----------------------------------------------------------------
   Total forces(   9)            :  0.204505E-01  0.407889E-01 -0.164615E+00
  atom #   10
   Hellmann-Feynman              :  0.346639E+01  0.539886E+01  0.246960E+01
   Ionic forces                  :  0.000000E+00  0.000000E+00  0.000000E+00
   Multipole                     :  0.928909E-01 -0.211948E-01  0.225992E+00
   Pulay + GGA                   : -0.122082E+01 -0.352527E+01 -0.435820E+00
   Van der Waals                 :  0.265659E-02 -0.142510E-01  0.444867E-02
   ----------------------------------------------------------------
   Total forces(  10)            :  0.234111E+01  0.183814E+01  0.226422E+01
  atom #   11
   Hellmann-Feynman              :  0.375911E+01 -0.228971E+01  0.139476E+02
   Ionic forces                  :  0.000000E+00  0.000000E+00  0.000000E+00
   Multipole                     :  0.985616E-01 -0.550438E+00  0.703651E+00
   Pulay + GGA                   : -0.291350E+01  0.333662E+01 -0.138253E+02
   Van der Waals                 : -0.536103E-04 -0.120318E-01  0.455726E-02
   ----------------------------------------------------------------
   Total forces(  11)            :  0.944123E+00  0.484440E+00  0.830428E+00
  atom #   12
   Hellmann-Feynman              :  0.445441E+00 -0.146646E+02 -0.538287E+01
   Ionic forces                  :  0.000000E+00  0.000000E+00  0.000000E+00
   Multipole                     : -0.691675E+00 -0.147388E+01 -0.239123E+00
   Pulay + GGA                   : -0.238242E+01  0.140245E+02  0.372714E+01
   Van der Waals                 :  0.200465E-02  0.700576E-02  0.283262E-02
   ----------------------------------------------------------------
   Total forces(  12)            : -0.262665E+01 -0.210702E+01 -0.189202E+01
  atom #   13
   Hellmann-Feynman              : -0.112438E+01 -0.305578E+00 -0.938429E+00
   Ionic forces                  :  0.000000E+00  0.000000E+00  0.000000E+00
   Multipole                     : -0.789022E-01  0.272087E-01  0.237840E-01
   Pulay + GGA                   :  0.314954E+00 -0.304273E+00  0.107434E+00
   Van der Waals                 : -0.380657E-02  0.363015E-02 -0.301916E-03
   ----------------------------------------------------------------
   Total forces(  13)            : -0.892131E+00 -0.579012E+00 -0.807513E+00

  Timings for VdW correction (Tkatchenko-Scheffler 2009 or later):
  | CPU time:        0.089 s, Wall clock time:        0.089 s.
  Removing unitary transformations (pure translations, rotations) from forces on atoms.
  Atomic forces before filtering:
  | Net force on center of mass :  -0.523289E-02  0.959124E-03 -0.519511E-02 eV/A
  | Net torque on center of mass:  -0.110760E-02  0.141221E-02 -0.148910E-01 eV
  Atomic forces after filtering:
  | Net force on center of mass :   0.178406E-15 -0.892031E-16  0.178406E-15 eV/A
  | Net torque on center of mass:   0.200618E-15 -0.132172E-14  0.000000E+00 eV

  Energy and forces in a compact form:
  | Total energy uncorrected      :         -0.880227945978934E+04 eV
  | Total energy corrected        :         -0.880227945978934E+04 eV  <-- do not rely on this value for anything but (periodic) metals
  | Electronic free energy        :         -0.880227945978934E+04 eV
  Total atomic forces (unitary forces cleaned) [eV/Ang]:
  |   1         -0.489991812324373E+00          0.213863041323184E+00         -0.550026707548497E+00
  |   2          0.283897113070527E+00          0.438538624565748E-01          0.320353545745753E-01
  |   3          0.453566436886447E+00          0.663557986646200E+00          0.555679562228402E+00
  |   4         -0.296546347487643E+00         -0.251445908144985E+00         -0.139398997430348E+00
  |   5          0.264722669813085E+00         -0.698359220413898E-01         -0.503864685799599E+00
  |   6          0.215342427848691E+00         -0.316488059828221E+00          0.177122975725527E+00
  |   7         -0.243299162295058E+00          0.524785947439387E-01         -0.225488646857747E-01
  |   8          0.214429828923656E-01         -0.122287360267017E-01          0.218629133697048E+00
  |   9          0.196857025335400E-01          0.408857132005869E-01         -0.164142948866974E+00
  |  10          0.234210861487986E+01          0.183808917336549E+01          0.226458575015327E+01
  |  11          0.945253708326331E+00          0.484502290651443E+00          0.830785814542064E+00
  |  12         -0.262521668018462E+01         -0.210741443446695E+01         -0.189168762863656E+01
  |  13         -0.890965653959153E+00         -0.579817601879166E+00         -0.807168757953136E+00

  ------------------------------------ 
  Start decomposition of the XC Energy 
  ------------------------------------ 
  X and C from original XC functional choice 
  Hartree-Fock Energy :          0.000000000 Ha              0.000000000 eV
  X Energy            :        -41.042413467 Ha          -1116.820893657 eV
  C Energy            :         -1.601557131 Ha            -43.580586895 eV
  Total XC Energy     :        -42.643970598 Ha          -1160.401480552 eV
  ------------------------------------ 
  LDA X and C from self-consistent density 
  X Energy LDA        :        -37.262102519 Ha          -1013.953398932 eV
  C Energy LDA        :         -3.139032599 Ha            -85.417423004 eV
  ------------------------------------ 
  End decomposition of the XC Energy 
  ------------------------------------ 

------------------------------------------------------------

------------------------------------------------------------------------------
  Final output of selected total energy values:

  The following output summarizes some interesting total energy values
  at the end of a run (AFTER all relaxation, molecular dynamics, etc.).

  | Total energy of the DFT / Hartree-Fock s.c.f. calculation      :          -8802.279459789 eV
  | Final zero-broadening corrected energy (caution - metals only) :          -8802.279459789 eV
  | For reference only, the value of 1 Hartree used in FHI-aims is :             27.211384500 eV

  Before relying on these values, please be sure to understand exactly which
  total energy value is referred to by a given number. Different objects may
  all carry the same name 'total energy'. Definitions:

  Total energy of the DFT / Hartree-Fock s.c.f. calculation:
  | Note that this energy does not include ANY quantities calculated after the
  | s.c.f. cycle, in particular not ANY RPA, MP2, etc. many-body perturbation terms.

  Final zero-broadening corrected energy:
  | For metallic systems only, a broadening of the occupation numbers at the Fermi
  | level can be extrapolated back to zero broadening by an electron-gas inspired
  | formula. For all systems that are not real metals, this value can be
  | meaningless and should be avoided.

------------------------------------------------------------------------------
  Methods described in the following list of references were used in this FHI-aims run.
  If you publish the results, please make sure to cite these reference if they apply.
  FHI-aims is an academic code, and for our developers (often, Ph.D. students
  and postdocs), scientific credit in the community is essential.
  Thank you for helping us!

  For any use of FHI-aims, please cite:

    Volker Blum, Ralf Gehrke, Felix Hanke, Paula Havu, Ville Havu,
    Xinguo Ren, Karsten Reuter, and Matthias Scheffler
    'Ab initio molecular simulations with numeric atom-centered orbitals'
    Computer Physics Communications 180, 2175-2196 (2009)
    http://dx.doi.org/10.1016/j.cpc.2009.06.022


  The scalable eigensolver library ELPA was used in your run.
  ELPA is essential especially for large systems on hundreds or thousands of CPUs.
  For ELPA, please cite:

    Andreas Marek, Volker Blum, Rainer Johanni, Ville Havu, Bruno Lang,
    Thomas Auckenthaler, Alexander Heinecke, Hans-Joachim Bungartz, and Hermann Lederer,
    'The ELPA Library - Scalable Parallel Eigenvalue Solutions
    for Electronic Structure Theory and Computational Science'
    The Journal of Physics: Condensed Matter 26, 213201 (2014).
    http://dx.doi.org/10.1088/0953-8984/26/21/213201


  The ELSI infrastructure was used in your run to solve the Kohn-Sham electronic structure.
  Please check out http://elsi-interchange.org to learn more.
  If scalability is important for your project, please acknowledge ELSI by citing:

    V. W-z. Yu, F. Corsetti, A. Garcia, W. P. Huhn, M. Jacquelin, W. Jia,
    B. Lange, L. Lin, J. Lu, W. Mi, A. Seifitokaldani, A. Vazquez-Mayagoitia,
    C. Yang, H. Yang, and V. Blum
    'ELSI: A unified software interface for Kohn-Sham electronic structure solvers'
    Computer Physics Communications 222, 267-285 (2018).
    http://dx.doi.org/10.1016/j.cpc.2017.09.007


  For the real-space grid partitioning and parallelization used in this calculation, please cite:

    Ville Havu, Volker Blum, Paula Havu, and Matthias Scheffler,
    'Efficient O(N) integration for all-electron electronic structure calculation'
    'using numerically tabulated basis functions'
    Journal of Computational Physics 228, 8367-8379 (2009).
    http://dx.doi.org/10.1016/j.jcp.2009.08.008

  Of course, there are many other important community references, e.g., those cited in the
  above references. Our list is limited to references that describe implementations in the
  FHI-aims code. The reason is purely practical (length of this list) - please credit others as well.

------------------------------------------------------------
          Leaving FHI-aims.
          Date     :  20200805, Time     :  182242.715

          Computational steps:
          | Number of self-consistency cycles          :           16
          | Number of SCF (re)initializations          :            1

          Detailed time accounting                     :  max(cpu_time)    wall_clock(cpu1)
          | Total time                                 :       22.605 s          22.650 s
          | Preparation time                           :        0.146 s           0.146 s
          | Boundary condition initalization           :        0.000 s           0.000 s
          | Grid partitioning                          :        0.109 s           0.109 s
          | Preloading free-atom quantities on grid    :        0.002 s           0.002 s
          | Free-atom superposition energy             :        0.084 s           0.084 s
          | Total time for integrations                :        8.589 s           8.605 s
          | Total time for solution of K.-S. equations :        0.035 s           0.038 s
          | Total time for density & force components  :        7.164 s           7.176 s
          | Total time for mixing                      :        0.210 s           0.214 s
          | Total time for Hartree multipole update    :        0.140 s           0.142 s
          | Total time for Hartree multipole sum       :        5.729 s           5.729 s
          | Total time for total energy evaluation     :        0.003 s           0.002 s
          | Total time for vdW correction              :        0.089 s           0.089 s

          Partial memory accounting:
          | Residual value for overall tracked memory usage across tasks :           0.000 MB (should be 0.000 MB)
          | Peak values for overall tracked memory usage (after allocating hessian_basis_wave):
          |   Minimum:        1.622 MB (on task 1)
          |   Maximum:        1.622 MB (on task 1)
          |   Average:        1.622 MB
          | Largest tracked array allocation (hessian_basis_wave):
          |   Minimum:        0.794 MB (on task 1)
          |   Maximum:        0.794 MB (on task 1)
          |   Average:        0.794 MB
          Note:  These values currently only include a subset of arrays which are explicitly tracked.
          The "true" memory usage will be greater.

          Have a nice day.
------------------------------------------------------------
