  MPI-parallelism will be employed.
------------------------------------------------------------
          Invoking FHI-aims ...
          Version 171221_1
          Compiled on 2019/09/09 at 14:39:39 on host puhti-login2.bullx.

          When using FHI-aims, please cite the following reference:

          Volker Blum, Ralf Gehrke, Felix Hanke, Paula Havu,
          Ville Havu, Xinguo Ren, Karsten Reuter, and Matthias Scheffler,
          'Ab Initio Molecular Simulations with Numeric Atom-Centered Orbitals',
          Computer Physics Communications 180, 2175-2196 (2009)

          For any questions about FHI-aims, please visit the aimsclub website
          with its forums and wiki. Contributions to both the forums and the
          wiki are warmly encouraged - they are for you, and everyone is welcome there.

------------------------------------------------------------



  Date     :  20200902, Time     :  102134.630
  Time zero on CPU 1             :   0.112860000000000E-01  s.
  Internal wall clock time zero  :           368274094.630  s.

  FHI-aims created a unique identifier for this run for later identification
  aims_uuid : 91BD1665-B9DD-4D59-A3CD-C46FD81C6E94

  Using        1 parallel tasks.
  Task        0 on host r18c48.bullx reporting.

  Performing system and environment tests:
  | Environment variable OMP_NUM_THREADS correctly set to 1.
  | Stacksize not measured: no C compiler
  | Checking for scalapack...
  | Testing pdtran()...
  | All pdtran() tests passed.

  Obtaining array dimensions for all initial allocations:
  
  -----------------------------------------------------------------------
  Parsing control.in (first pass over file, find array dimensions only).
  The contents of control.in will be repeated verbatim below
  unless switched off by setting 'verbatim_writeout .false.' .
  in the first line of control.in .
  -----------------------------------------------------------------------
  
  #########################################################################################
  #
  #  Volker Blum, FHI 2009 : Test run input file control.in for simple H2O
  #
  #########################################################################################
  #
  #  Physical model
  #
    xc                 pbe
    vdw_correction_hirshfeld
    spin               none
    relativistic       none
    charge             0.
  #
  #  SCF convergence
  #
    occupation_type    gaussian 0.01
    mixer              pulay
      n_max_pulay        10
      charge_mix_param   0.2
    sc_accuracy_rho    1E-5
    sc_accuracy_eev    1E-3
    sc_accuracy_etot   1E-6
    sc_accuracy_forces 1E-4
    sc_iter_limit      100
  #
  #  Relaxation
  #
  #  relax_geometry   bfgs 1.e-3
  #
  ################################################################################
  #
  #  FHI-aims code project
  #  VB, Fritz-Haber Institut, 2009
  #
  #  Suggested "light" defaults for H atom (to be pasted into control.in file)
  #  Be sure to double-check any results obtained with these settings for post-processing,
  #  e.g., with the "tight" defaults and larger basis sets.
  #
  ################################################################################
    species        H
  #     global species definitions
      nucleus             1
      mass                1.00794
  #
      l_hartree           4
  #
      cut_pot             3.5  1.5  1.0
      basis_dep_cutoff    1e-4
  #
      radial_base         24 5.0
      radial_multiplier   1
      angular_grids       specified
        division   0.2421   50
        division   0.3822  110
        division   0.4799  194
        division   0.5341  302
  #      division   0.5626  434
  #      division   0.5922  590
  #      division   0.6542  770
  #      division   0.6868 1202
  #      outer_grid  770
        outer_grid  302
  ################################################################################
  #
  #  Definition of "minimal" basis
  #
  ################################################################################
  #     valence basis states
      valence      1  s   1.
  #     ion occupancy
      ion_occ      1  s   0.5
  ################################################################################
  #
  #  Suggested additional basis functions. For production calculations,
  #  uncomment them one after another (the most important basis functions are
  #  listed first).
  #
  #  Basis constructed for dimers: 0.5 A, 0.7 A, 1.0 A, 1.5 A, 2.5 A
  #
  ################################################################################
  #  "First tier" - improvements: -1014.90 meV to -62.69 meV
       hydro 2 s 2.1
       hydro 2 p 3.5
  #  "Second tier" - improvements: -12.89 meV to -1.83 meV
  #     hydro 1 s 0.85
  #     hydro 2 p 3.7
  #     hydro 2 s 1.2
  #     hydro 3 d 7
  #  "Third tier" - improvements: -0.25 meV to -0.12 meV
  #     hydro 4 f 11.2
  #     hydro 3 p 4.8
  #     hydro 4 d 9
  #     hydro 3 s 3.2
  ################################################################################
  #
  #  FHI-aims code project
  #  VB, Fritz-Haber Institut, 2009
  #
  #  Suggested "light" defaults for C atom (to be pasted into control.in file)
  #  Be sure to double-check any results obtained with these settings for post-processing,
  #  e.g., with the "tight" defaults and larger basis sets.
  #
  ################################################################################
    species        C
  #     global species definitions
      nucleus             6
      mass                12.0107
  #
      l_hartree           4
  #
      cut_pot             3.5  1.5  1.0
      basis_dep_cutoff    1e-4
  #
      radial_base         34 5.0
      radial_multiplier   1
      angular_grids specified
        division   0.3326   50
        division   0.5710  110
        division   0.7727  194
        division   0.8772  302
  #      division   0.9334  434
  #      division   0.9625  590
  #      division   0.9924  770
  #      division   1.0230  974
  #      division   1.4589 1202
  #     outer_grid  974
       outer_grid 302
  ################################################################################
  #
  #  Definition of "minimal" basis
  #
  ################################################################################
  #     valence basis states
      valence      2  s   2.
      valence      2  p   2.
  #     ion occupancy
      ion_occ      2  s   1.
      ion_occ      2  p   1.
  ################################################################################
  #
  #  Suggested additional basis functions. For production calculations,
  #  uncomment them one after another (the most important basis functions are
  #  listed first).
  #
  #  Constructed for dimers: 1.0 A, 1.25 A, 1.5 A, 2.0 A, 3.0 A
  #
  ################################################################################
  #  "First tier" - improvements: -1214.57 meV to -155.61 meV
       hydro 2 p 1.7
       hydro 3 d 6
       hydro 2 s 4.9
  #  "Second tier" - improvements: -67.75 meV to -5.23 meV
  #     hydro 4 f 9.8
  #     hydro 3 p 5.2
  #     hydro 3 s 4.3
  #     hydro 5 g 14.4
  #     hydro 3 d 6.2
  #  "Third tier" - improvements: -2.43 meV to -0.60 meV
  #     hydro 2 p 5.6
  #     hydro 2 s 1.4
  #     hydro 3 d 4.9
  #     hydro 4 f 11.2
  #  "Fourth tier" - improvements: -0.39 meV to -0.18 meV
  #     hydro 2 p 2.1
  #     hydro 5 g 16.4
  #     hydro 4 d 13.2
  #     hydro 3 s 13.6
  #     hydro 4 f 17.6
  #  Further basis functions - improvements: -0.08 meV and below
  #     hydro 3 s 2
  #     hydro 3 p 6
  #     hydro 4 d 20
  ################################################################################
  #
  #  FHI-aims code project
  #  VB, Fritz-Haber Institut, 2009
  #
  #  Suggested "light" defaults for N atom (to be pasted into control.in file)
  #  Be sure to double-check any results obtained with these settings for post-processing,
  #  e.g., with the "tight" defaults and larger basis sets.
  #
  ################################################################################
    species        N
  #     global species definitions
      nucleus             7
      mass                14.0067
  #
      l_hartree           4
  #
      cut_pot             3.5  1.5  1.0
      basis_dep_cutoff    1e-4
  #
      radial_base         35 5.0
      radial_multiplier   1
      angular_grids       specified
        division   0.2599   50
        division   0.4601  110
        division   0.5885  194
        division   0.6503  302
  #      division   0.6939  434
  #      division   0.7396  590
  #      division   0.7632  770
  #      division   0.8122  974
  #      division   1.1604 1202
  #      outer_grid  974
        outer_grid  302
  ################################################################################
  #
  #  Definition of "minimal" basis
  #
  ################################################################################
  #     valence basis states
      valence      2  s   2.
      valence      2  p   3.
  #     ion occupancy
      ion_occ      2  s   1.
      ion_occ      2  p   2.
  ################################################################################
  #
  #  Suggested additional basis functions. For production calculations,
  #  uncomment them one after another (the most important basis functions are
  #  listed first).
  #
  #  Constructed for dimers: 1.0 A, 1.1 A, 1.5 A, 2.0 A, 3.0 A
  #
  ################################################################################
  #  "First tier" - improvements: -1193.42 meV to -220.60 meV
       hydro 2 p 1.8
       hydro 3 d 6.8
       hydro 3 s 5.8
  #  "Second tier" - improvements: -80.21 meV to -6.86 meV
  #     hydro 4 f 10.8
  #     hydro 3 p 5.8
  #     hydro 1 s 0.8
  #     hydro 5 g 16
  #     hydro 3 d 4.9
  #  "Third tier" - improvements: -4.29 meV to -0.53 meV
  #     hydro 3 s 16
  #     ionic 2 p auto
  #     hydro 3 d 6.6
  #     hydro 4 f 11.6
  #  "Fourth tier" - improvements: -0.75 meV to -0.25 meV
  #     hydro 2 p 4.5
  #     hydro 2 s 2.4
  #     hydro 5 g 14.4
  #     hydro 4 d 14.4
  #     hydro 4 f 16.8
  # Further basis functions - -0.21 meV and below
  #     hydro 3 p 14.8
  #     hydro 3 s 4.4
  #     hydro 3 d 19.6
  #     hydro 5 g 12.8
  ################################################################################
  #
  #  FHI-aims code project
  #  VB, Fritz-Haber Institut, 2009
  #
  #  Suggested "light" defaults for O atom (to be pasted into control.in file)
  #  Be sure to double-check any results obtained with these settings for post-processing,
  #  e.g., with the "tight" defaults and larger basis sets.
  #
  ################################################################################
    species        O
  #     global species definitions
      nucleus             8
      mass                15.9994
  #
      l_hartree           4
  #
      cut_pot             3.5  1.5  1.0
      basis_dep_cutoff    1e-4
  #
      radial_base         36 5.0
      radial_multiplier   1
       angular_grids specified
        division   0.2659   50
        division   0.4451  110
        division   0.6052  194
        division   0.7543  302
  #      division   0.8014  434
  #      division   0.8507  590
  #      division   0.8762  770
  #      division   0.9023  974
  #      division   1.2339 1202
  #      outer_grid 974
        outer_grid 302
  ################################################################################
  #
  #  Definition of "minimal" basis
  #
  ################################################################################
  #     valence basis states
      valence      2  s   2.
      valence      2  p   4.
  #     ion occupancy
      ion_occ      2  s   1.
      ion_occ      2  p   3.
  ################################################################################
  #
  #  Suggested additional basis functions. For production calculations,
  #  uncomment them one after another (the most important basis functions are
  #  listed first).
  #
  #  Constructed for dimers: 1.0 A, 1.208 A, 1.5 A, 2.0 A, 3.0 A
  #
  ################################################################################
  #  "First tier" - improvements: -699.05 meV to -159.38 meV
       hydro 2 p 1.8
       hydro 3 d 7.6
       hydro 3 s 6.4
  #  "Second tier" - improvements: -49.91 meV to -5.39 meV
  #     hydro 4 f 11.6
  #     hydro 3 p 6.2
  #     hydro 3 d 5.6
  #     hydro 5 g 17.6
  #     hydro 1 s 0.75
  #  "Third tier" - improvements: -2.83 meV to -0.50 meV
  #     ionic 2 p auto
  #     hydro 4 f 10.8
  #     hydro 4 d 4.7
  #     hydro 2 s 6.8
  #  "Fourth tier" - improvements: -0.40 meV to -0.12 meV
  #     hydro 3 p 5
  #     hydro 3 s 3.3
  #     hydro 5 g 15.6
  #     hydro 4 f 17.6
  #     hydro 4 d 14
  # Further basis functions - -0.08 meV and below
  #     hydro 3 s 2.1
  #     hydro 4 d 11.6
  #     hydro 3 p 16
  #     hydro 2 s 17.2
  
  -----------------------------------------------------------------------
  Completed first pass over input file control.in .
  -----------------------------------------------------------------------
  
  
  -----------------------------------------------------------------------
  Parsing geometry.in (first pass over file, find array dimensions only).
  The contents of geometry.in will be repeated verbatim below
  unless switched off by setting 'verbatim_writeout .false.' .
  in the first line of geometry.in .
  -----------------------------------------------------------------------
  
  atom  0.00000 0.00000 0.00000 C
  atom  1.09300 0.00000 0.00000 H
  atom  -0.47961 0.00000 -1.41207 N
  atom  -1.38069 0.47785 -1.45146 H
  atom  0.20271 0.48755 -1.98902 H
  atom  -0.49584 1.26211 0.72868 C
  atom  -1.58789 1.28919 0.74431 H
  atom  -0.13407 1.27425 1.75947 H
  atom  -0.13407 2.16087 0.22380 H
  atom  -0.39425 -1.28861 0.74398 C
  atom  -0.10189 -1.56493 1.88303 O
  atom  -1.10210 -2.13717 0.06896 O
  atom  -1.95546 -1.99422 0.51203 H
  
  -----------------------------------------------------------------------
  Completed first pass over input file geometry.in .
  -----------------------------------------------------------------------
  

  Basic array size parameters:
  | Number of species                 :        4
  | Number of atoms                   :       13
  | Max. basis fn. angular momentum   :        2
  | Max. atomic/ionic basis occupied n:        2
  | Max. number of basis fn. types    :        2
  | Max. radial fns per species/type  :        3
  | Max. logarithmic grid size        :     1301
  | Max. radial integration grid size :       36
  | Max. angular integration grid size:      302
  | Max. angular grid division number :        8
  | Radial grid for Hartree potential :     1301
  | Number of spin channels           :        1

------------------------------------------------------------
          Reading file control.in.
------------------------------------------------------------
  XC: Using PBE gradient-corrected functionals.
  Spin treatment: No spin polarisation.
  Non-relativistic treatment of kinetic energy.
  Charge =   0.000000E+00: Neutral system requested explicitly.
  Occupation type: Gaussian broadening, width =   0.100000E-01 eV.
  Using pulay charge density mixing.
  Pulay mixing - number of memorized iterations:   10
  Charge density mixing - mixing parameter:     0.2000
  Convergence accuracy of self-consistent charge density:  0.1000E-04
  Convergence accuracy of sum of eigenvalues:  0.1000E-02
  Convergence accuracy of total energy:  0.1000E-05
  Convergence accuracy of forces:  0.1000E-03
  Maximum number of s.-c. iterations  :   100
 
  Reading configuration options for species H                   .
  | Found nuclear charge :   1.0000
  | Found atomic mass :    1.00794000000000      amu
  | Found l_max for Hartree potential  :   4
  | Found cutoff potl. onset [A], width [A], scale factor :    3.50000    1.50000    1.00000
  | Threshold for basis-dependent cutoff potential is   0.100000E-03
  | Found data for basic radial integration grid :    24 points, outermost radius =    5.000 A
  | Found multiplier for basic radial grid :   1
  | Found angular grid specification: user-specified.
  | Specified grid contains     5 separate shells.
  | Check grid settings after all constraints further below.
  | Found free-atom valence shell :  1 s   1.000
  | No ionic wave fns used. Skipping ion_occ.
  | Found hydrogenic basis function :  2 s   2.100
  | Found hydrogenic basis function :  2 p   3.500
  Species H                   : Missing cutoff potential type.
  Defaulting to exp(1/x)/(1-x)^2 type cutoff potential.
  Species H : No 'logarithmic' tag. Using default grid for free atom:
  | Default logarithmic grid data [bohr] : 0.1000E-03 0.1000E+03 0.1012E+01
  Species H : On-site basis accuracy parameter (for Gram-Schmidt orthonormalisation) not specified.
  Using default value basis_acc =  0.1000000E-03.
  Species H                   : Using default innermost maximum threshold i_radial=  2 for radial functions.
  Species H                   : Default cutoff onset for free atom density etc. : 0.35000000E+01 AA.
  Species H                   : Basic radial grid will be enhanced according to radial_multiplier =   1, to contain    24 grid points.
 
  Reading configuration options for species C                   .
  | Found nuclear charge :   6.0000
  | Found atomic mass :    12.0107000000000      amu
  | Found l_max for Hartree potential  :   4
  | Found cutoff potl. onset [A], width [A], scale factor :    3.50000    1.50000    1.00000
  | Threshold for basis-dependent cutoff potential is   0.100000E-03
  | Found data for basic radial integration grid :    34 points, outermost radius =    5.000 A
  | Found multiplier for basic radial grid :   1
  | Found angular grid specification: user-specified.
  | Specified grid contains     5 separate shells.
  | Check grid settings after all constraints further below.
  | Found free-atom valence shell :  2 s   2.000
  | Found free-atom valence shell :  2 p   2.000
  | No ionic wave fns used. Skipping ion_occ.
  | No ionic wave fns used. Skipping ion_occ.
  | Found hydrogenic basis function :  2 p   1.700
  | Found hydrogenic basis function :  3 d   6.000
  | Found hydrogenic basis function :  2 s   4.900
  Species C                   : Missing cutoff potential type.
  Defaulting to exp(1/x)/(1-x)^2 type cutoff potential.
  Species C : No 'logarithmic' tag. Using default grid for free atom:
  | Default logarithmic grid data [bohr] : 0.1000E-03 0.1000E+03 0.1012E+01
  Species C : On-site basis accuracy parameter (for Gram-Schmidt orthonormalisation) not specified.
  Using default value basis_acc =  0.1000000E-03.
  Species C                   : Using default innermost maximum threshold i_radial=  2 for radial functions.
  Species C                   : Default cutoff onset for free atom density etc. : 0.35000000E+01 AA.
  Species C                   : Basic radial grid will be enhanced according to radial_multiplier =   1, to contain    34 grid points.
 
  Reading configuration options for species N                   .
  | Found nuclear charge :   7.0000
  | Found atomic mass :    14.0067000000000      amu
  | Found l_max for Hartree potential  :   4
  | Found cutoff potl. onset [A], width [A], scale factor :    3.50000    1.50000    1.00000
  | Threshold for basis-dependent cutoff potential is   0.100000E-03
  | Found data for basic radial integration grid :    35 points, outermost radius =    5.000 A
  | Found multiplier for basic radial grid :   1
  | Found angular grid specification: user-specified.
  | Specified grid contains     5 separate shells.
  | Check grid settings after all constraints further below.
  | Found free-atom valence shell :  2 s   2.000
  | Found free-atom valence shell :  2 p   3.000
  | No ionic wave fns used. Skipping ion_occ.
  | No ionic wave fns used. Skipping ion_occ.
  | Found hydrogenic basis function :  2 p   1.800
  | Found hydrogenic basis function :  3 d   6.800
  | Found hydrogenic basis function :  3 s   5.800
  Species N                   : Missing cutoff potential type.
  Defaulting to exp(1/x)/(1-x)^2 type cutoff potential.
  Species N : No 'logarithmic' tag. Using default grid for free atom:
  | Default logarithmic grid data [bohr] : 0.1000E-03 0.1000E+03 0.1012E+01
  Species N : On-site basis accuracy parameter (for Gram-Schmidt orthonormalisation) not specified.
  Using default value basis_acc =  0.1000000E-03.
  Species N                   : Using default innermost maximum threshold i_radial=  2 for radial functions.
  Species N                   : Default cutoff onset for free atom density etc. : 0.35000000E+01 AA.
  Species N                   : Basic radial grid will be enhanced according to radial_multiplier =   1, to contain    35 grid points.
 
  Reading configuration options for species O                   .
  | Found nuclear charge :   8.0000
  | Found atomic mass :    15.9994000000000      amu
  | Found l_max for Hartree potential  :   4
  | Found cutoff potl. onset [A], width [A], scale factor :    3.50000    1.50000    1.00000
  | Threshold for basis-dependent cutoff potential is   0.100000E-03
  | Found data for basic radial integration grid :    36 points, outermost radius =    5.000 A
  | Found multiplier for basic radial grid :   1
  | Found angular grid specification: user-specified.
  | Specified grid contains     5 separate shells.
  | Check grid settings after all constraints further below.
  | Found free-atom valence shell :  2 s   2.000
  | Found free-atom valence shell :  2 p   4.000
  | No ionic wave fns used. Skipping ion_occ.
  | No ionic wave fns used. Skipping ion_occ.
  | Found hydrogenic basis function :  2 p   1.800
  | Found hydrogenic basis function :  3 d   7.600
  | Found hydrogenic basis function :  3 s   6.400
  Species O                   : Missing cutoff potential type.
  Defaulting to exp(1/x)/(1-x)^2 type cutoff potential.
  Species O : No 'logarithmic' tag. Using default grid for free atom:
  | Default logarithmic grid data [bohr] : 0.1000E-03 0.1000E+03 0.1012E+01
  Species O : On-site basis accuracy parameter (for Gram-Schmidt orthonormalisation) not specified.
  Using default value basis_acc =  0.1000000E-03.
  Species O                   : Using default innermost maximum threshold i_radial=  2 for radial functions.
  Species O                   : Default cutoff onset for free atom density etc. : 0.35000000E+01 AA.
  Species O                   : Basic radial grid will be enhanced according to radial_multiplier =   1, to contain    36 grid points.
 
  Finished reading input file 'control.in'. Consistency checks are next.
 
  MPI_IN_PLACE appears to work with this MPI implementation.
  | Keeping use_mpi_in_place .true. (see manual).
  Target number of points in a grid batch is not set. Defaulting to  100
  Method for grid partitioning is not set. Defaulting to parallel hash+maxmin partitioning.
  Batch size limit is not set. Defaulting to    200
  By default, will store active basis functions for each batch.
  If in need of memory, prune_basis_once .false. can be used to disable this option.
  communication_type for Hartree potential was not specified.
  Defaulting to calc_hartree .
  Pulay mixer: Number of initial linear mixing iterations not set.
  Defaulting to    0 iterations.
  Work space size for distributed Hartree potential not set.
  Defaulting to   0.200000E+03 MB.
  Algorithm-dependent basis array size parameters:
  | n_max_pulay                         :       10
  Presetting      1001 iterations before the initial mixing cycle
  is restarted anyway using the sc_init_iter criterion / keyword.
  Presetting a factor      1.000 between actual scf density residual
  and density convergence criterion sc_accuracy_rho below which sc_init_iter
  takes no effect.
  Geometry relaxation not requested: no relaxation will be performed.
  Handling of forces: Unphysical translation and rotation will be removed from forces.
  No accuracy limit for integral partition fn. given. Defaulting to  0.1000E-14.
  No threshold value for u(r) in integrations given. Defaulting to  0.1000E-05.
  No accuracy for occupation numbers given. Defaulting to  0.1000E-12.
  No threshold value for occupation numbers given. Defaulting to  0.0000E+00.
  No accuracy for fermi level given. Defaulting to  0.1000E-19.
  Maximum # of iterations to find E_F not set. Defaulting to  200.
  Preferred method for the eigenvalue solver ('KS_method') not specified in 'control.in'.
  Defaulting to serial version, 'lapack_fast'.
  Will not use alltoall communication since running on < 1024 CPUs.
  Threshold for basis singularities not set.
  Default threshold for basis singularities:  0.1000E-04
  partition_type (choice of integration weights) for integrals was not specified.
  | Using a version of the partition function of Stratmann and coworkers ('stratmann_smoother').
  | At each grid point, the set of atoms used to build the partition table is smoothly restricted to
  | only those atoms whose free-atom density would be non-zero at that grid point.
  Partitioning for Hartree potential was not defined. Using partition_type for integrals.
  | Adjusted default value of keyword multip_moments_threshold to:       0.10000000E-11
  | This value may affect high angular momentum components of the Hartree potential in periodic systems.
  No q(lm)/r^(l+1) cutoff set for long-range Hartree potential.
  | Using default value of  0.100000E-09 .
  | Verify using the multipole_threshold keyword.
  Defaulting to new monopole extrapolation.
  Density update method: automatic selection selected.
------------------------------------------------------------


------------------------------------------------------------
          Reading geometry description geometry.in.
------------------------------------------------------------
  Input structure read successfully.
  The structure contains       13 atoms,  and a total of         48.000 electrons.

  Input geometry:
  | No unit cell requested.
  | Atomic structure:
  |       Atom                x [A]            y [A]            z [A]
  |    1: Species C             0.00000000        0.00000000        0.00000000
  |    2: Species H             1.09300000        0.00000000        0.00000000
  |    3: Species N            -0.47961000        0.00000000       -1.41207000
  |    4: Species H            -1.38069000        0.47785000       -1.45146000
  |    5: Species H             0.20271000        0.48755000       -1.98902000
  |    6: Species C            -0.49584000        1.26211000        0.72868000
  |    7: Species H            -1.58789000        1.28919000        0.74431000
  |    8: Species H            -0.13407000        1.27425000        1.75947000
  |    9: Species H            -0.13407000        2.16087000        0.22380000
  |   10: Species C            -0.39425000       -1.28861000        0.74398000
  |   11: Species O            -0.10189000       -1.56493000        1.88303000
  |   12: Species O            -1.10210000       -2.13717000        0.06896000
  |   13: Species H            -1.95546000       -1.99422000        0.51203000
  |

  | The smallest distance between any two atoms is         0.97209517 AA.
  |
  | The first atom of this pair is atom number                     12 .
  | The second atom of this pair is atom number                    13 .

  Number of empty states per atom not set in control.in - providing a guess from actual geometry.
  | Total number of empty states used during s.c.f. cycle:       29
  If you use a very high smearing, use empty_states (per atom!) in control.in to increase this value.

  Structure-dependent array size parameters: 
  | Maximum number of distinct radial functions  :       21
  | Maximum number of basis functions            :      119
  | Number of Kohn-Sham states (occupied + empty):       53
------------------------------------------------------------

------------------------------------------------------------
          Preparing all fixed parts of the calculation.
------------------------------------------------------------
  Determining machine precision:
    2.225073858507201E-308
  Setting up grids for atomic and cluster calculations.

  Creating wave function, potential, and density for free atoms.

  Species: H

  List of occupied orbitals and eigenvalues:
    n    l              occ      energy [Ha]    energy [eV]
    1    0           1.0000        -0.237589        -6.4651


  Species: C

  List of occupied orbitals and eigenvalues:
    n    l              occ      energy [Ha]    energy [eV]
    1    0           2.0000       -10.038835      -273.1706
    2    0           2.0000        -0.502696       -13.6791
    2    1           2.0000        -0.191971        -5.2238


  Species: N

  List of occupied orbitals and eigenvalues:
    n    l              occ      energy [Ha]    energy [eV]
    1    0           2.0000       -14.128000      -384.4424
    2    0           2.0000        -0.681077       -18.5330
    2    1           3.0000        -0.259788        -7.0692


  Species: O

  List of occupied orbitals and eigenvalues:
    n    l              occ      energy [Ha]    energy [eV]
    1    0           2.0000       -18.898188      -514.2459
    2    0           2.0000        -0.878505       -23.9053
    2    1           4.0000        -0.331779        -9.0282

  Creating fixed part of basis set: Ionic, confined, hydrogenic.
 
  H                    hydrogenic:
 
  List of hydrogenic basis orbitals: 
    n    l      effective z      eigenvalue [eV]  inner max. [A]     outer max. [A]     outer radius [A]   
    2    0         2.100000       -14.9728           0.193243           1.317208           4.583499
    2    1         3.500000       -41.6669           0.602369           0.602369           3.723403
 
 
  C                    hydrogenic:
 
  List of hydrogenic basis orbitals: 
    n    l      effective z      eigenvalue [eV]  inner max. [A]     outer max. [A]     outer radius [A]   
    2    1         1.700000        -9.7616           1.230570           1.230570           4.607917
    3    2         6.000000       -54.4224           0.792453           0.792453           3.883070
    2    0         4.900000       -81.6679           0.082559           0.562749           3.078220
 
 
  N                    hydrogenic:
 
  List of hydrogenic basis orbitals: 
    n    l      effective z      eigenvalue [eV]  inner max. [A]     outer max. [A]     outer radius [A]   
    2    1         1.800000       -10.9749           1.177451           1.177451           4.573712
    3    2         6.800000       -69.9026           0.704619           0.704619           3.538137
    3    0         5.800000       -50.8545           0.067388           1.191934           4.250239
 
 
  O                    hydrogenic:
 
  List of hydrogenic basis orbitals: 
    n    l      effective z      eigenvalue [eV]  inner max. [A]     outer max. [A]     outer radius [A]   
    2    1         1.800000       -10.9749           1.164242           1.164242           4.578029
    3    2         7.600000       -87.3180           0.624125           0.624125           3.251020
    3    0         6.400000       -61.9207           0.061167           1.081902           4.001998
 

  Adding cutoff potential to free-atom effective potential.
  Creating atomic-like basis functions for current effective potential.

  Species H                   :

  List of atomic basis orbitals and eigenvalues:
    n    l      energy [Ha]    energy [eV]    outer radius [A]
    1    0        -0.237589        -6.4651       4.527807


  Species C                   :

  List of atomic basis orbitals and eigenvalues:
    n    l      energy [Ha]    energy [eV]    outer radius [A]
    1    0       -10.038835      -273.1706       1.934409
    2    0        -0.502696       -13.6791       4.496620
    2    1        -0.191971        -5.2238       4.551928


  Species N                   :

  List of atomic basis orbitals and eigenvalues:
    n    l      energy [Ha]    energy [eV]    outer radius [A]
    1    0       -14.128000      -384.4424       1.637919
    2    0        -0.681077       -18.5330       4.463241
    2    1        -0.259788        -7.0692       4.518138


  Species O                   :

  List of atomic basis orbitals and eigenvalues:
    n    l      energy [Ha]    energy [eV]    outer radius [A]
    1    0       -18.898188      -514.2459       1.415765
    2    0        -0.878505       -23.9053       4.413171
    2    1        -0.331779        -9.0282       4.522403

  Assembling full basis from fixed parts.
  | Species H :   atomic orbital   1 s accepted.
  | Species H :    hydro orbital   2 s accepted.
  | Species H :    hydro orbital   2 p accepted.
  | Species C :   atomic orbital   1 s accepted.
  | Species C :    hydro orbital   2 s accepted.
  | Species C :   atomic orbital   2 s accepted.
  | Species C :   atomic orbital   2 p accepted.
  | Species C :    hydro orbital   2 p accepted.
  | Species C :    hydro orbital   3 d accepted.
  | Species N :   atomic orbital   1 s accepted.
  | Species N :    hydro orbital   3 s accepted.
  | Species N :   atomic orbital   2 s accepted.
  | Species N :   atomic orbital   2 p accepted.
  | Species N :    hydro orbital   2 p accepted.
  | Species N :    hydro orbital   3 d accepted.
  | Species O :   atomic orbital   1 s accepted.
  | Species O :    hydro orbital   3 s accepted.
  | Species O :   atomic orbital   2 s accepted.
  | Species O :   atomic orbital   2 p accepted.
  | Species O :    hydro orbital   2 p accepted.
  | Species O :    hydro orbital   3 d accepted.
 
  Basis size parameters after reduction:
  | Total number of radial functions:       21
  | Total number of basis functions :      119
 
  Per-task memory consumption for arrays in subroutine allocate_ext:
  |           5.250512MB.
  Testing on-site integration grid accuracy.
  |  Species  Function  <phi|h_atom|phi> (log., in eV)  <phi|h_atom|phi> (rad., in eV)
           1        1                 -6.4663192853                 -6.4651273558
           1        2                 13.7111246313                 13.7170609718
           1        3                 25.2673269279                 25.2674696378
           2        4               -273.1705927641               -273.1705631568
           2        5                -10.7109323383                -10.7107120029
           2        6                 17.4381822266                 17.4352413244
           2        7                 -5.2255326521                 -5.2270484734
           2        8                  8.6835629259                  8.6603288385
           2        9                 27.4952418996                 27.4953360207
           3       10               -384.4424306495               -384.4423701208
           3       11                 12.5842251816                 12.5842222903
           3       12                -15.7264628251                -15.7264433455
           3       13                 -7.0696854293                 -7.0701769954
           3       14                  8.8090390882                  8.7901077751
           3       15                 35.9586762123                 35.9588528632
           4       16               -514.2458688638               -514.2457643834
           4       17                 15.1795651126                 15.1795290741
           4       18                -21.5359799773                -21.5360846186
           4       19                 -9.0283069236                 -9.0284644067
           4       20                  8.3027758564                  8.2834874195
           4       21                 45.8339351984                 45.8338762259

  Preparing densities etc. for the partition functions (integrals / Hartree potential).

  Preparations completed.
  max(cpu_time)          :      0.148 s.
  Wall clock time (cpu1) :      0.149 s.
------------------------------------------------------------

------------------------------------------------------------
          Begin self-consistency loop: Initialization.

          Date     :  20200902, Time     :  102134.798
------------------------------------------------------------

  Initializing index lists of integration centers etc. from given atomic structure:
  | Number of centers in hartree potential         :        13
  | Number of centers in hartree multipole         :        13
  | Number of centers in electron density summation:        13
  | Number of centers in basis integrals           :        13
  | Number of centers in integrals                 :        13
  | Number of centers in hamiltonian               :        13
  Partitioning the integration grid into batches with parallel hashing+maxmin method.
  | Number of batches:      947
  | Maximal batch size:     139
  | Minimal batch size:      66
  | Average batch size:      73.544
  | Standard deviation of batch sizes:      18.612

  Integration load balanced across     1 MPI tasks.
  Work distribution over tasks is as follows:
  Task     0 has      69646 integration points.
  Initializing partition tables, free-atom densities, potentials, etc. across the integration grid (initialize_grid_storage).
  | initialize_grid_storage: Actual outermost partition radius vs. multipole_radius_free
  | (-- VB: in principle, multipole_radius_free should be larger, hence this output)
  | Species        1: Confinement radius =              4.999999999999999 AA, multipole_radius_free =              5.054417573612229 AA.
  | Species        1: outer_partition_radius set to              5.054417573612229 AA .
  | Species        2: Confinement radius =              4.999999999999999 AA, multipole_radius_free =              5.019602836301480 AA.
  | Species        2: outer_partition_radius set to              5.019602836301480 AA .
  | Species        3: Confinement radius =              4.999999999999999 AA, multipole_radius_free =              5.043624274424571 AA.
  | Species        3: outer_partition_radius set to              5.043624274424571 AA .
  | Species        4: Confinement radius =              4.999999999999999 AA, multipole_radius_free =              5.048384829883283 AA.
  | Species        4: outer_partition_radius set to              5.048384829883283 AA .
  | Original list of interatomic distances with          13 x         13 entries is created.
  | Net number of integration points:    69646
  | of which are non-zero points    :    59512
  Renormalizing the initial density to the exact electron count on the 3D integration grid.
  | Initial density: Formal number of electrons (from input files) :      48.0000000000
  | Integrated number of electrons on 3D grid     :      47.9998561937
  | Charge integration error                      :      -0.0001438063
  | Normalization factor for density and gradient :       1.0000029960
  Obtaining max. number of non-zero basis functions in each batch (get_n_compute_maxes).
  | Maximal number of non-zero basis functions:      119 in task     0
  Selecting the method for density update.
  Loop over occupied states selected for charge density update.
  Allocating        0.050 MB for KS_eigenvector
  Integrating Hamiltonian matrix: batch-based integration.
  Time summed over all CPUs for integration: real work        0.495 s, elapsed        0.495 s
  Integrating overlap matrix.
  Time summed over all CPUs for integration: real work        0.214 s, elapsed        0.214 s

  Updating Kohn-Sham eigenvalues and eigenvectors using ELSI and the ELPA eigensolver.
  Overlap matrix is nonsingular
  | Lowest eigenvalue of overlap  :  0.49E-02
  | Highest eigenvalue of overlap :  0.62E+01
  Finished singularity check of overlap matrix
  | Time :     0.002 s
  Finished Cholesky decomposition
  | Time :     0.000 s
  Finished transformation to standard eigenproblem
  | Time :     0.000 s
  Starting LAPACK eigensolver
  Finished solving standard eigenproblem
  | Time :     0.002 s
  Finished back-transformation of eigenvectors
  | Time :     0.000 s

  Obtaining occupation numbers and chemical potential using ELSI.
  | Chemical potential (Fermi level):    -9.06162368eV
  Writing Kohn-Sham eigenvalues.

  State    Occupation    Eigenvalue [Ha]    Eigenvalue [eV]
      1       2.00000         -19.007504         -517.22049
      2       2.00000         -18.977459         -516.40294
      3       2.00000         -14.245802         -387.64799
      4       2.00000         -10.166847         -276.65398
      5       2.00000         -10.141282         -275.95831
      6       2.00000         -10.131896         -275.70291
      7       2.00000          -1.184165          -32.22277
      8       2.00000          -1.095710          -29.81579
      9       2.00000          -0.991983          -26.99322
     10       2.00000          -0.858589          -23.36339
     11       2.00000          -0.760302          -20.68887
     12       2.00000          -0.677588          -18.43810
     13       2.00000          -0.628889          -17.11295
     14       2.00000          -0.604638          -16.45305
     15       2.00000          -0.584296          -15.89951
     16       2.00000          -0.570401          -15.52141
     17       2.00000          -0.552954          -15.04665
     18       2.00000          -0.535836          -14.58083
     19       2.00000          -0.521264          -14.18430
     20       2.00000          -0.497009          -13.52431
     21       2.00000          -0.455550          -12.39616
     22       2.00000          -0.425816          -11.58705
     23       2.00000          -0.411519          -11.19801
     24       2.00000          -0.383253          -10.42885
     25       0.00000          -0.162506           -4.42200
     26       0.00000          -0.065024           -1.76938
     27       0.00000          -0.033484           -0.91115
     28       0.00000          -0.019901           -0.54154
     29       0.00000          -0.006296           -0.17131
     30       0.00000           0.010461            0.28466
     31       0.00000           0.017905            0.48722
     32       0.00000           0.032294            0.87877
     33       0.00000           0.046117            1.25491
     34       0.00000           0.069924            1.90272
     35       0.00000           0.089282            2.42950
     36       0.00000           0.134909            3.67105
     37       0.00000           0.159317            4.33522
     38       0.00000           0.201233            5.47582
     39       0.00000           0.208768            5.68086
     40       0.00000           0.228152            6.20832
     41       0.00000           0.260378            7.08525
     42       0.00000           0.272443            7.41356
     43       0.00000           0.292864            7.96925
     44       0.00000           0.300894            8.18775
     45       0.00000           0.325327            8.85260
     46       0.00000           0.338183            9.20242
     47       0.00000           0.368320           10.02250
     48       0.00000           0.399084           10.85962
     49       0.00000           0.433591           11.79862
     50       0.00000           0.467533           12.72223
     51       0.00000           0.526884           14.33723
     52       0.00000           0.530980           14.44869
     53       0.00000           0.585409           15.92980

  Highest occupied state (VBM) at    -10.42884525 eV
  | Occupation number:      2.00000000

  Lowest unoccupied state (CBM) at    -4.42200234 eV
  | Occupation number:      0.00000000

  Overall HOMO-LUMO gap:      6.00684291 eV.
  Calculating total energy contributions from superposition of free atom densities.

  Total energy components:
  | Sum of eigenvalues            :        -188.82110387 Ha       -5138.08365920 eV
  | XC energy correction          :         -41.78325400 Ha       -1136.98019021 eV
  | XC potential correction       :          53.71244146 Ha        1461.58989713 eV
  | Free-atom electrostatic energy:        -146.86647546 Ha       -3996.44013387 eV
  | Hartree energy correction     :           0.00000000 Ha           0.00000000 eV
  | vdW energy correction         :           0.00000000 Ha           0.00000000 eV
  | Entropy correction            :           0.00000000 Ha           0.00000000 eV
  | ---------------------------
  | Total energy                  :        -323.75839187 Ha       -8809.91408615 eV
  | Total energy, T -> 0          :        -323.75839187 Ha       -8809.91408615 eV  <-- do not rely on this value for anything but (periodic) metals
  | Electronic free energy        :        -323.75839187 Ha       -8809.91408615 eV

  Derived energy quantities:
  | Kinetic energy                :         320.48656842 Ha        8720.88324033 eV
  | Electrostatic energy          :        -602.46170629 Ha      -16393.81713627 eV
  | Energy correction for multipole
  | error in Hartree potential    :           0.00000000 Ha           0.00000000 eV
  | Sum of eigenvalues per atom                           :        -395.23720455 eV
  | Total energy (T->0) per atom                          :        -677.68569893 eV  <-- do not rely on this value for anything but (periodic) metals
  | Electronic free energy per atom                       :        -677.68569893 eV
  Initialize hartree_potential_storage
  Max. number of atoms included in rho_multipole:           13

  End scf initialization - timings             :  max(cpu_time)    wall_clock(cpu1)
  | Time for scf. initialization               :        1.154 s           1.155 s
  | Boundary condition initialization          :        0.000 s           0.000 s
  | Integration                                :        0.710 s           0.710 s
  | Solution of K.-S. eqns.                    :        0.004 s           0.004 s
  | Grid partitioning                          :        0.112 s           0.112 s
  | Preloading free-atom quantities on grid    :        0.002 s           0.003 s
  | Free-atom superposition energy             :        0.085 s           0.085 s
  | Total energy evaluation                    :        0.000 s           0.000 s

  Partial memory accounting:
  | Current value for overall tracked memory usage on task 0  :           0.165 MB
  | Peak value for overall tracked memory usage on task 0     :           0.678 MB after allocating wave
  | Largest tracked array allocation on task 0 so far         :           0.132 MB  when allocating H_times_psi
  Note:  These values currently only include a subset of arrays which are explicitly tracked.
  The "true" memory usage will be greater.
------------------------------------------------------------

------------------------------------------------------------
          Begin self-consistency iteration #    1

  Date     :  20200902, Time     :  102135.953
------------------------------------------------------------
  Evaluating new KS density.
  Integration grid: deviation in total charge (<rho> - N_e) =   2.842171E-14
  Pulay mixing of updated and previous charge densities.

  Evaluating partitioned Hartree potential by multipole expansion.
  | Analytical far-field extrapolation by fixed multipoles:
  | Hartree multipole sum: apparent total charge =  -0.245404E-03
  Summing up the Hartree potential.
  Time summed over all CPUs for potential: real work        0.282 s, elapsed        0.282 s
  | RMS charge density error from multipole expansion :   0.585466E-02

  Integrating Hamiltonian matrix: batch-based integration.
  Time summed over all CPUs for integration: real work        0.493 s, elapsed        0.493 s

  Updating Kohn-Sham eigenvalues and eigenvectors using ELSI and the ELPA eigensolver.
  Finished Cholesky decomposition
  | Time :     0.000 s
  Finished transformation to standard eigenproblem
  | Time :     0.000 s
  Starting LAPACK eigensolver
  Finished solving standard eigenproblem
  | Time :     0.001 s
  Finished back-transformation of eigenvectors
  | Time :     0.000 s

  Obtaining occupation numbers and chemical potential using ELSI.
  | Chemical potential (Fermi level):    -7.84262245eV
  Writing Kohn-Sham eigenvalues.

  State    Occupation    Eigenvalue [Ha]    Eigenvalue [eV]
      1       2.00000         -18.890376         -514.03328
      2       2.00000         -18.838931         -512.63339
      3       2.00000         -14.095644         -383.56198
      4       2.00000         -10.114761         -275.23665
      5       2.00000         -10.062503         -273.81464
      6       2.00000         -10.034000         -273.03904
      7       2.00000          -1.130040          -30.74996
      8       2.00000          -1.030740          -28.04787
      9       2.00000          -0.921641          -25.07912
     10       2.00000          -0.793676          -21.59702
     11       2.00000          -0.708538          -19.28029
     12       2.00000          -0.628205          -17.09433
     13       2.00000          -0.575663          -15.66459
     14       2.00000          -0.541351          -14.73091
     15       2.00000          -0.525525          -14.30026
     16       2.00000          -0.509205          -13.85617
     17       2.00000          -0.488810          -13.30120
     18       2.00000          -0.474593          -12.91434
     19       2.00000          -0.460259          -12.52429
     20       2.00000          -0.441530          -12.01465
     21       2.00000          -0.394377          -10.73153
     22       2.00000          -0.365777           -9.95330
     23       2.00000          -0.337008           -9.17045
     24       2.00000          -0.308283           -8.38881
     25       0.00000          -0.126009           -3.42888
     26       0.00000          -0.041899           -1.14014
     27       0.00000          -0.007309           -0.19888
     28       0.00000           0.018814            0.51197
     29       0.00000           0.020677            0.56264
     30       0.00000           0.048808            1.32813
     31       0.00000           0.057249            1.55781
     32       0.00000           0.066542            1.81070
     33       0.00000           0.087440            2.37936
     34       0.00000           0.109134            2.96968
     35       0.00000           0.131130            3.56823
     36       0.00000           0.163789            4.45693
     37       0.00000           0.187182            5.09348
     38       0.00000           0.229769            6.25234
     39       0.00000           0.240627            6.54778
     40       0.00000           0.266390            7.24885
     41       0.00000           0.290863            7.91478
     42       0.00000           0.310677            8.45394
     43       0.00000           0.327552            8.91315
     44       0.00000           0.335030            9.11664
     45       0.00000           0.367614           10.00329
     46       0.00000           0.376073           10.23348
     47       0.00000           0.415542           11.30746
     48       0.00000           0.436874           11.88794
     49       0.00000           0.472835           12.86648
     50       0.00000           0.500279           13.61329
     51       0.00000           0.562159           15.29712
     52       0.00000           0.564564           15.36256
     53       0.00000           0.626649           17.05200

  Highest occupied state (VBM) at     -8.38881412 eV
  | Occupation number:      2.00000000

  Lowest unoccupied state (CBM) at    -3.42888189 eV
  | Occupation number:      0.00000000

  Overall HOMO-LUMO gap:      4.95993223 eV.

  Total energy components:
  | Sum of eigenvalues            :        -185.34287222 Ha       -5043.43616038 eV
  | XC energy correction          :         -42.11535446 Ha       -1146.01710344 eV
  | XC potential correction       :          54.14446679 Ha        1473.34590424 eV
  | Free-atom electrostatic energy:        -146.86647546 Ha       -3996.44013387 eV
  | Hartree energy correction     :          -3.39131651 Ha         -92.28241755 eV
  | vdW energy correction         :           0.00000000 Ha           0.00000000 eV
  | Entropy correction            :           0.00000000 Ha           0.00000000 eV
  | ---------------------------
  | Total energy                  :        -323.57155186 Ha       -8804.82991100 eV
  | Total energy, T -> 0          :        -323.57155186 Ha       -8804.82991100 eV  <-- do not rely on this value for anything but (periodic) metals
  | Electronic free energy        :        -323.57155186 Ha       -8804.82991100 eV

  Derived energy quantities:
  | Kinetic energy                :         322.30130858 Ha        8770.26483262 eV
  | Electrostatic energy          :        -603.75750599 Ha      -16429.07764018 eV
  | Energy correction for multipole
  | error in Hartree potential    :           0.01218318 Ha           0.33152131 eV
  | Sum of eigenvalues per atom                           :        -387.95662772 eV
  | Total energy (T->0) per atom                          :        -677.29460854 eV  <-- do not rely on this value for anything but (periodic) metals
  | Electronic free energy per atom                       :        -677.29460854 eV

  Self-consistency convergence accuracy:
  | Change of charge density      :  0.5901E+00
  | Change of sum of eigenvalues  :  0.9465E+02 eV
  | Change of total energy        :  0.5084E+01 eV

  End self-consistency iteration #     1       :  max(cpu_time)    wall_clock(cpu1)
  | Time for this iteration                    :        1.186 s           1.187 s
  | Charge density update                      :        0.393 s           0.394 s
  | Density mixing                             :        0.005 s           0.005 s
  | Hartree multipole update                   :        0.009 s           0.009 s
  | Hartree multipole summation                :        0.283 s           0.283 s
  | Integration                                :        0.493 s           0.493 s
  | Solution of K.-S. eqns.                    :        0.002 s           0.002 s
  | Total energy evaluation                    :        0.000 s           0.000 s

  Partial memory accounting:
  | Current value for overall tracked memory usage on task 0  :           0.165 MB
  | Peak value for overall tracked memory usage on task 0     :           0.695 MB after allocating gradient_basis_wave
  | Largest tracked array allocation on task 0 so far         :           0.397 MB  when allocating gradient_basis_wave
  Note:  These values currently only include a subset of arrays which are explicitly tracked.
  The "true" memory usage will be greater.
------------------------------------------------------------

------------------------------------------------------------
          Begin self-consistency iteration #    2

  Date     :  20200902, Time     :  102137.143
------------------------------------------------------------
  Evaluating new KS density.
  Integration grid: deviation in total charge (<rho> - N_e) =   3.552714E-14
  Pulay mixing of updated and previous charge densities.

  Evaluating partitioned Hartree potential by multipole expansion.
  | Analytical far-field extrapolation by fixed multipoles:
  | Hartree multipole sum: apparent total charge =  -0.374756E-03
  Summing up the Hartree potential.
  Time summed over all CPUs for potential: real work        0.282 s, elapsed        0.282 s
  | RMS charge density error from multipole expansion :   0.138689E-01

  Integrating Hamiltonian matrix: batch-based integration.
  Time summed over all CPUs for integration: real work        0.494 s, elapsed        0.494 s

  Updating Kohn-Sham eigenvalues and eigenvectors using ELSI and the ELPA eigensolver.
  Finished Cholesky decomposition
  | Time :     0.000 s
  Finished transformation to standard eigenproblem
  | Time :     0.000 s
  Starting LAPACK eigensolver
  Finished solving standard eigenproblem
  | Time :     0.002 s
  Finished back-transformation of eigenvectors
  | Time :     0.000 s

  Obtaining occupation numbers and chemical potential using ELSI.
  | Chemical potential (Fermi level):    -2.28846533eV
  Highest occupied state (VBM) at     -6.33153103 eV
  | Occupation number:      2.00000000

  Lowest unoccupied state (CBM) at    -2.17623528 eV
  | Occupation number:      0.00000000

  Overall HOMO-LUMO gap:      4.15529575 eV.

  Checking to see if s.c.f. parameters should be adjusted.

  Total energy components:
  | Sum of eigenvalues            :        -181.69455228 Ha       -4944.16032377 eV
  | XC energy correction          :         -42.47765270 Ha       -1155.87574041 eV
  | XC potential correction       :          54.61425255 Ha        1486.12942536 eV
  | Free-atom electrostatic energy:        -146.86647546 Ha       -3996.44013387 eV
  | Hartree energy correction     :          -7.06590282 Ha        -192.27299858 eV
  | vdW energy correction         :           0.00000000 Ha           0.00000000 eV
  | Entropy correction            :          -0.00000000 Ha          -0.00000000 eV
  | ---------------------------
  | Total energy                  :        -323.49033072 Ha       -8802.61977126 eV
  | Total energy, T -> 0          :        -323.49033072 Ha       -8802.61977126 eV  <-- do not rely on this value for anything but (periodic) metals
  | Electronic free energy        :        -323.49033072 Ha       -8802.61977126 eV

  Derived energy quantities:
  | Kinetic energy                :         323.62856280 Ha        8806.38125763 eV
  | Electrostatic energy          :        -604.64124082 Ha      -16453.12528848 eV
  | Energy correction for multipole
  | error in Hartree potential    :           0.02680496 Ha           0.72939998 eV
  | Sum of eigenvalues per atom                           :        -380.32002491 eV
  | Total energy (T->0) per atom                          :        -677.12459779 eV  <-- do not rely on this value for anything but (periodic) metals
  | Electronic free energy per atom                       :        -677.12459779 eV

  Self-consistency convergence accuracy:
  | Change of charge density      :  0.3687E+00
  | Change of sum of eigenvalues  :  0.9928E+02 eV
  | Change of total energy        :  0.2210E+01 eV

  End self-consistency iteration #     2       :  max(cpu_time)    wall_clock(cpu1)
  | Time for this iteration                    :        1.180 s           1.180 s
  | Charge density update                      :        0.385 s           0.385 s
  | Density mixing                             :        0.007 s           0.007 s
  | Hartree multipole update                   :        0.009 s           0.009 s
  | Hartree multipole summation                :        0.282 s           0.282 s
  | Integration                                :        0.494 s           0.494 s
  | Solution of K.-S. eqns.                    :        0.002 s           0.003 s
  | Total energy evaluation                    :        0.000 s           0.000 s

  Partial memory accounting:
  | Current value for overall tracked memory usage on task 0  :           0.166 MB
  | Peak value for overall tracked memory usage on task 0     :           0.695 MB after allocating gradient_basis_wave
  | Largest tracked array allocation on task 0 so far         :           0.397 MB  when allocating gradient_basis_wave
  Note:  These values currently only include a subset of arrays which are explicitly tracked.
  The "true" memory usage will be greater.
------------------------------------------------------------

------------------------------------------------------------
          Begin self-consistency iteration #    3

  Date     :  20200902, Time     :  102138.326
------------------------------------------------------------
  Evaluating new KS density.
  Integration grid: deviation in total charge (<rho> - N_e) =   2.131628E-14
  Pulay mixing of updated and previous charge densities.

  Evaluating partitioned Hartree potential by multipole expansion.
  | Analytical far-field extrapolation by fixed multipoles:
  | Hartree multipole sum: apparent total charge =  -0.465582E-03
  Summing up the Hartree potential.
  Time summed over all CPUs for potential: real work        0.282 s, elapsed        0.282 s
  | RMS charge density error from multipole expansion :   0.218203E-01

  Integrating Hamiltonian matrix: batch-based integration.
  Time summed over all CPUs for integration: real work        0.495 s, elapsed        0.495 s

  Updating Kohn-Sham eigenvalues and eigenvectors using ELSI and the ELPA eigensolver.
  Finished Cholesky decomposition
  | Time :     0.000 s
  Finished transformation to standard eigenproblem
  | Time :     0.000 s
  Starting LAPACK eigensolver
  Finished solving standard eigenproblem
  | Time :     0.002 s
  Finished back-transformation of eigenvectors
  | Time :     0.000 s

  Obtaining occupation numbers and chemical potential using ELSI.
  | Chemical potential (Fermi level):    -1.59729259eV
  Highest occupied state (VBM) at     -5.64362997 eV
  | Occupation number:      2.00000000

  Lowest unoccupied state (CBM) at    -1.48637106 eV
  | Occupation number:      0.00000000

  Overall HOMO-LUMO gap:      4.15725891 eV.

  Total energy components:
  | Sum of eigenvalues            :        -180.38775921 Ha       -4908.60067489 eV
  | XC energy correction          :         -42.62707285 Ha       -1159.94166943 eV
  | XC potential correction       :          54.80484512 Ha        1491.31571313 eV
  | Free-atom electrostatic energy:        -146.86647546 Ha       -3996.44013387 eV
  | Hartree energy correction     :          -8.40042184 Ha        -228.58710854 eV
  | vdW energy correction         :           0.00000000 Ha           0.00000000 eV
  | Entropy correction            :          -0.00000000 Ha          -0.00000000 eV
  | ---------------------------
  | Total energy                  :        -323.47688423 Ha       -8802.25387361 eV
  | Total energy, T -> 0          :        -323.47688423 Ha       -8802.25387361 eV  <-- do not rely on this value for anything but (periodic) metals
  | Electronic free energy        :        -323.47688423 Ha       -8802.25387361 eV

  Derived energy quantities:
  | Kinetic energy                :         323.18600657 Ha        8794.33868990 eV
  | Electrostatic energy          :        -604.03581795 Ha      -16436.65089408 eV
  | Energy correction for multipole
  | error in Hartree potential    :           0.03786296 Ha           1.03030356 eV
  | Sum of eigenvalues per atom                           :        -377.58466730 eV
  | Total energy (T->0) per atom                          :        -677.09645182 eV  <-- do not rely on this value for anything but (periodic) metals
  | Electronic free energy per atom                       :        -677.09645182 eV

  Self-consistency convergence accuracy:
  | Change of charge density      :  0.2067E+00
  | Change of sum of eigenvalues  :  0.3556E+02 eV
  | Change of total energy        :  0.3659E+00 eV

  End self-consistency iteration #     3       :  max(cpu_time)    wall_clock(cpu1)
  | Time for this iteration                    :        1.181 s           1.181 s
  | Charge density update                      :        0.385 s           0.385 s
  | Density mixing                             :        0.008 s           0.008 s
  | Hartree multipole update                   :        0.009 s           0.009 s
  | Hartree multipole summation                :        0.282 s           0.282 s
  | Integration                                :        0.495 s           0.495 s
  | Solution of K.-S. eqns.                    :        0.002 s           0.002 s
  | Total energy evaluation                    :        0.000 s           0.000 s

  Partial memory accounting:
  | Current value for overall tracked memory usage on task 0  :           0.166 MB
  | Peak value for overall tracked memory usage on task 0     :           0.695 MB after allocating gradient_basis_wave
  | Largest tracked array allocation on task 0 so far         :           0.397 MB  when allocating gradient_basis_wave
  Note:  These values currently only include a subset of arrays which are explicitly tracked.
  The "true" memory usage will be greater.
------------------------------------------------------------

------------------------------------------------------------
          Begin self-consistency iteration #    4

  Date     :  20200902, Time     :  102139.511
------------------------------------------------------------
  Evaluating new KS density.
  Integration grid: deviation in total charge (<rho> - N_e) =  -2.131628E-14
  Pulay mixing of updated and previous charge densities.

  Evaluating partitioned Hartree potential by multipole expansion.
  | Analytical far-field extrapolation by fixed multipoles:
  | Hartree multipole sum: apparent total charge =  -0.495925E-03
  Summing up the Hartree potential.
  Time summed over all CPUs for potential: real work        0.282 s, elapsed        0.282 s
  | RMS charge density error from multipole expansion :   0.251331E-01

  Integrating Hamiltonian matrix: batch-based integration.
  Time summed over all CPUs for integration: real work        0.495 s, elapsed        0.495 s

  Updating Kohn-Sham eigenvalues and eigenvectors using ELSI and the ELPA eigensolver.
  Finished Cholesky decomposition
  | Time :     0.000 s
  Finished transformation to standard eigenproblem
  | Time :     0.000 s
  Starting LAPACK eigensolver
  Finished solving standard eigenproblem
  | Time :     0.002 s
  Finished back-transformation of eigenvectors
  | Time :     0.000 s

  Obtaining occupation numbers and chemical potential using ELSI.
  | Chemical potential (Fermi level):    -1.49313255eV
  Highest occupied state (VBM) at     -5.46021485 eV
  | Occupation number:      2.00000000

  Lowest unoccupied state (CBM) at    -1.38605465 eV
  | Occupation number:      0.00000000

  Overall HOMO-LUMO gap:      4.07416020 eV.

  Total energy components:
  | Sum of eigenvalues            :        -180.21953395 Ha       -4904.02303278 eV
  | XC energy correction          :         -42.66574201 Ha       -1160.99391082 eV
  | XC potential correction       :          54.85363979 Ha        1492.64348355 eV
  | Free-atom electrostatic energy:        -146.86647546 Ha       -3996.44013387 eV
  | Hartree energy correction     :          -8.57780093 Ha        -233.41383923 eV
  | vdW energy correction         :           0.00000000 Ha           0.00000000 eV
  | Entropy correction            :          -0.00000000 Ha          -0.00000000 eV
  | ---------------------------
  | Total energy                  :        -323.47591256 Ha       -8802.22743316 eV
  | Total energy, T -> 0          :        -323.47591256 Ha       -8802.22743316 eV  <-- do not rely on this value for anything but (periodic) metals
  | Electronic free energy        :        -323.47591256 Ha       -8802.22743316 eV

  Derived energy quantities:
  | Kinetic energy                :         322.81551986 Ha        8784.25723337 eV
  | Electrostatic energy          :        -603.62569041 Ha      -16425.49075570 eV
  | Energy correction for multipole
  | error in Hartree potential    :           0.04203972 Ha           1.14395893 eV
  | Sum of eigenvalues per atom                           :        -377.23254098 eV
  | Total energy (T->0) per atom                          :        -677.09441794 eV  <-- do not rely on this value for anything but (periodic) metals
  | Electronic free energy per atom                       :        -677.09441794 eV

  Self-consistency convergence accuracy:
  | Change of charge density      :  0.6510E-01
  | Change of sum of eigenvalues  :  0.4578E+01 eV
  | Change of total energy        :  0.2644E-01 eV

  End self-consistency iteration #     4       :  max(cpu_time)    wall_clock(cpu1)
  | Time for this iteration                    :        1.184 s           1.184 s
  | Charge density update                      :        0.386 s           0.385 s
  | Density mixing                             :        0.010 s           0.010 s
  | Hartree multipole update                   :        0.009 s           0.009 s
  | Hartree multipole summation                :        0.282 s           0.282 s
  | Integration                                :        0.495 s           0.496 s
  | Solution of K.-S. eqns.                    :        0.002 s           0.002 s
  | Total energy evaluation                    :        0.000 s           0.000 s

  Partial memory accounting:
  | Current value for overall tracked memory usage on task 0  :           0.166 MB
  | Peak value for overall tracked memory usage on task 0     :           0.696 MB after allocating gradient_basis_wave
  | Largest tracked array allocation on task 0 so far         :           0.397 MB  when allocating gradient_basis_wave
  Note:  These values currently only include a subset of arrays which are explicitly tracked.
  The "true" memory usage will be greater.
------------------------------------------------------------

------------------------------------------------------------
          Begin self-consistency iteration #    5

  Date     :  20200902, Time     :  102140.698
------------------------------------------------------------
  Evaluating new KS density.
  Integration grid: deviation in total charge (<rho> - N_e) =   6.394885E-14
  Pulay mixing of updated and previous charge densities.

  Evaluating partitioned Hartree potential by multipole expansion.
  | Analytical far-field extrapolation by fixed multipoles:
  | Hartree multipole sum: apparent total charge =  -0.489924E-03
  Summing up the Hartree potential.
  Time summed over all CPUs for potential: real work        0.282 s, elapsed        0.282 s
  | RMS charge density error from multipole expansion :   0.249088E-01

  Integrating Hamiltonian matrix: batch-based integration.
  Time summed over all CPUs for integration: real work        0.495 s, elapsed        0.495 s

  Updating Kohn-Sham eigenvalues and eigenvectors using ELSI and the ELPA eigensolver.
  Finished Cholesky decomposition
  | Time :     0.000 s
  Finished transformation to standard eigenproblem
  | Time :     0.000 s
  Starting LAPACK eigensolver
  Finished solving standard eigenproblem
  | Time :     0.002 s
  Finished back-transformation of eigenvectors
  | Time :     0.000 s

  Obtaining occupation numbers and chemical potential using ELSI.
  | Chemical potential (Fermi level):    -1.57710413eV
  Highest occupied state (VBM) at     -5.56129319 eV
  | Occupation number:      2.00000000

  Lowest unoccupied state (CBM) at    -1.49192619 eV
  | Occupation number:      0.00000000

  Overall HOMO-LUMO gap:      4.06936700 eV.

  Total energy components:
  | Sum of eigenvalues            :        -180.45142279 Ha       -4910.33304921 eV
  | XC energy correction          :         -42.63838966 Ha       -1160.24961561 eV
  | XC potential correction       :          54.81813019 Ha        1491.67721809 eV
  | Free-atom electrostatic energy:        -146.86647546 Ha       -3996.44013387 eV
  | Hartree energy correction     :          -8.33745799 Ha        -226.87377503 eV
  | vdW energy correction         :           0.00000000 Ha           0.00000000 eV
  | Entropy correction            :          -0.00000000 Ha          -0.00000000 eV
  | ---------------------------
  | Total energy                  :        -323.47561572 Ha       -8802.21935563 eV
  | Total energy, T -> 0          :        -323.47561572 Ha       -8802.21935563 eV  <-- do not rely on this value for anything but (periodic) metals
  | Electronic free energy        :        -323.47561572 Ha       -8802.21935563 eV

  Derived energy quantities:
  | Kinetic energy                :         322.67968940 Ha        8780.56109864 eV
  | Electrostatic energy          :        -603.51691545 Ha      -16422.53083866 eV
  | Energy correction for multipole
  | error in Hartree potential    :           0.04139049 Ha           1.12629264 eV
  | Sum of eigenvalues per atom                           :        -377.71792686 eV
  | Total energy (T->0) per atom                          :        -677.09379659 eV  <-- do not rely on this value for anything but (periodic) metals
  | Electronic free energy per atom                       :        -677.09379659 eV

  Self-consistency convergence accuracy:
  | Change of charge density      :  0.2002E-01
  | Change of sum of eigenvalues  : -0.6310E+01 eV
  | Change of total energy        :  0.8078E-02 eV

  End self-consistency iteration #     5       :  max(cpu_time)    wall_clock(cpu1)
  | Time for this iteration                    :        1.185 s           1.185 s
  | Charge density update                      :        0.385 s           0.385 s
  | Density mixing                             :        0.011 s           0.011 s
  | Hartree multipole update                   :        0.009 s           0.009 s
  | Hartree multipole summation                :        0.282 s           0.282 s
  | Integration                                :        0.495 s           0.496 s
  | Solution of K.-S. eqns.                    :        0.002 s           0.002 s
  | Total energy evaluation                    :        0.000 s           0.000 s

  Partial memory accounting:
  | Current value for overall tracked memory usage on task 0  :           0.166 MB
  | Peak value for overall tracked memory usage on task 0     :           0.696 MB after allocating gradient_basis_wave
  | Largest tracked array allocation on task 0 so far         :           0.397 MB  when allocating gradient_basis_wave
  Note:  These values currently only include a subset of arrays which are explicitly tracked.
  The "true" memory usage will be greater.
------------------------------------------------------------

------------------------------------------------------------
          Begin self-consistency iteration #    6

  Date     :  20200902, Time     :  102141.886
------------------------------------------------------------
  Evaluating new KS density.
  Integration grid: deviation in total charge (<rho> - N_e) =   7.105427E-15
  Pulay mixing of updated and previous charge densities.

  Evaluating partitioned Hartree potential by multipole expansion.
  | Analytical far-field extrapolation by fixed multipoles:
  | Hartree multipole sum: apparent total charge =  -0.494689E-03
  Summing up the Hartree potential.
  Time summed over all CPUs for potential: real work        0.282 s, elapsed        0.282 s
  | RMS charge density error from multipole expansion :   0.253807E-01

  Integrating Hamiltonian matrix: batch-based integration.
  Time summed over all CPUs for integration: real work        0.496 s, elapsed        0.496 s

  Updating Kohn-Sham eigenvalues and eigenvectors using ELSI and the ELPA eigensolver.
  Finished Cholesky decomposition
  | Time :     0.000 s
  Finished transformation to standard eigenproblem
  | Time :     0.000 s
  Starting LAPACK eigensolver
  Finished solving standard eigenproblem
  | Time :     0.002 s
  Finished back-transformation of eigenvectors
  | Time :     0.000 s

  Obtaining occupation numbers and chemical potential using ELSI.
  | Chemical potential (Fermi level):    -1.55771657eV
  Highest occupied state (VBM) at     -5.51192603 eV
  | Occupation number:      2.00000000

  Lowest unoccupied state (CBM) at    -1.48471606 eV
  | Occupation number:      0.00000000

  Overall HOMO-LUMO gap:      4.02720997 eV.

  Total energy components:
  | Sum of eigenvalues            :        -180.40701246 Ha       -4909.12458247 eV
  | XC energy correction          :         -42.64261362 Ha       -1160.36455523 eV
  | XC potential correction       :          54.82359378 Ha        1491.82589004 eV
  | Free-atom electrostatic energy:        -146.86647546 Ha       -3996.44013387 eV
  | Hartree energy correction     :          -8.38307558 Ha        -228.11509295 eV
  | vdW energy correction         :           0.00000000 Ha           0.00000000 eV
  | Entropy correction            :          -0.00000000 Ha          -0.00000000 eV
  | ---------------------------
  | Total energy                  :        -323.47558333 Ha       -8802.21847449 eV
  | Total energy, T -> 0          :        -323.47558333 Ha       -8802.21847449 eV  <-- do not rely on this value for anything but (periodic) metals
  | Electronic free energy        :        -323.47558333 Ha       -8802.21847449 eV

  Derived energy quantities:
  | Kinetic energy                :         322.62471010 Ha        8779.06503579 eV
  | Electrostatic energy          :        -603.45767982 Ha      -16420.91895504 eV
  | Energy correction for multipole
  | error in Hartree potential    :           0.04191007 Ha           1.14043097 eV
  | Sum of eigenvalues per atom                           :        -377.62496788 eV
  | Total energy (T->0) per atom                          :        -677.09372881 eV  <-- do not rely on this value for anything but (periodic) metals
  | Electronic free energy per atom                       :        -677.09372881 eV

  Self-consistency convergence accuracy:
  | Change of charge density      :  0.1025E-01
  | Change of sum of eigenvalues  :  0.1208E+01 eV
  | Change of total energy        :  0.8811E-03 eV

  End self-consistency iteration #     6       :  max(cpu_time)    wall_clock(cpu1)
  | Time for this iteration                    :        1.186 s           1.187 s
  | Charge density update                      :        0.385 s           0.385 s
  | Density mixing                             :        0.012 s           0.012 s
  | Hartree multipole update                   :        0.009 s           0.009 s
  | Hartree multipole summation                :        0.282 s           0.283 s
  | Integration                                :        0.495 s           0.496 s
  | Solution of K.-S. eqns.                    :        0.002 s           0.002 s
  | Total energy evaluation                    :        0.000 s           0.000 s

  Partial memory accounting:
  | Current value for overall tracked memory usage on task 0  :           0.166 MB
  | Peak value for overall tracked memory usage on task 0     :           0.696 MB after allocating gradient_basis_wave
  | Largest tracked array allocation on task 0 so far         :           0.397 MB  when allocating gradient_basis_wave
  Note:  These values currently only include a subset of arrays which are explicitly tracked.
  The "true" memory usage will be greater.
------------------------------------------------------------

------------------------------------------------------------
          Begin self-consistency iteration #    7

  Date     :  20200902, Time     :  102143.076
------------------------------------------------------------
  Evaluating new KS density.
  Integration grid: deviation in total charge (<rho> - N_e) =   3.552714E-14
  Pulay mixing of updated and previous charge densities.

  Evaluating partitioned Hartree potential by multipole expansion.
  | Analytical far-field extrapolation by fixed multipoles:
  | Hartree multipole sum: apparent total charge =  -0.495205E-03
  Summing up the Hartree potential.
  Time summed over all CPUs for potential: real work        0.288 s, elapsed        0.288 s
  | RMS charge density error from multipole expansion :   0.254592E-01

  Integrating Hamiltonian matrix: batch-based integration.
  Time summed over all CPUs for integration: real work        0.495 s, elapsed        0.495 s

  Updating Kohn-Sham eigenvalues and eigenvectors using ELSI and the ELPA eigensolver.
  Finished Cholesky decomposition
  | Time :     0.000 s
  Finished transformation to standard eigenproblem
  | Time :     0.000 s
  Starting LAPACK eigensolver
  Finished solving standard eigenproblem
  | Time :     0.002 s
  Finished back-transformation of eigenvectors
  | Time :     0.000 s

[...]
  |   Hirshfeld dipole moment :      0.06010428
  |   Hirshfeld second moments:      0.01777509      -0.02792129      -0.01744577
  |                                 -0.02792129      -0.02401944       0.00586293
  |                                 -0.01744577       0.00586293      -0.02074254
  ----------------------------------------------------------------------
  | Atom    12: O
  |   Hirshfeld charge        :     -0.16867354
  |   Free atom volume        :     23.61338643
  |   Hirshfeld volume        :     21.16399724
  |   Hirshfeld dipole vector :      0.00321627       0.02734177       0.03429855
  |   Hirshfeld dipole moment :      0.04398076
  |   Hirshfeld second moments:      0.10743322       0.00753921      -0.01540087
  |                                  0.00753921       0.03449705       0.01066223
  |                                 -0.01540087       0.01066223       0.00781940
  ----------------------------------------------------------------------
  | Atom    13: H
  |   Hirshfeld charge        :      0.18387499
  |   Free atom volume        :      9.95071624
  |   Hirshfeld volume        :      6.10101399
  |   Hirshfeld dipole vector :     -0.12103200       0.01705106       0.04560444
  |   Hirshfeld dipole moment :      0.13045784
  |   Hirshfeld second moments:      0.12404150       0.00434679      -0.00229417
  |                                  0.00434679       0.12146663       0.00215170
  |                                 -0.00229417       0.00215170       0.10499716
  ----------------------------------------------------------------------


  Total energy components:
  | Sum of eigenvalues            :        -180.41474451 Ha       -4909.33498232 eV
  | XC energy correction          :         -42.63837474 Ha       -1160.24920944 eV
  | XC potential correction       :          54.81819262 Ha        1491.67891700 eV
  | Free-atom electrostatic energy:        -146.86647546 Ha       -3996.44013387 eV
  | Hartree energy correction     :          -8.37415267 Ha        -227.87228828 eV
  | vdW energy correction         :          -0.00345014 Ha          -0.09388309 eV
  | Entropy correction            :          -0.00000000 Ha          -0.00000000 eV
  | ---------------------------
  | Total energy                  :        -323.47900490 Ha       -8802.31158001 eV
  | Total energy, T -> 0          :        -323.47900490 Ha       -8802.31158001 eV  <-- do not rely on this value for anything but (periodic) metals
  | Electronic free energy        :        -323.47900490 Ha       -8802.31158001 eV

  Derived energy quantities:
  | Kinetic energy                :         322.58508172 Ha        8777.98669274 eV
  | Electrostatic energy          :        -603.42226175 Ha      -16419.95518022 eV
  | Energy correction for multipole
  | error in Hartree potential    :           0.04192683 Ha           1.14088709 eV
  | Sum of eigenvalues per atom                           :        -377.64115249 eV
  | Total energy (T->0) per atom                          :        -677.10089077 eV  <-- do not rely on this value for anything but (periodic) metals
  | Electronic free energy per atom                       :        -677.10089077 eV

  atomic forces [eV/Ang]:
  -----------------------
  atom #    1
   Hellmann-Feynman              :  0.580075E+00  0.277191E+00  0.654527E+00
   Ionic forces                  :  0.000000E+00  0.000000E+00  0.000000E+00
   Multipole                     : -0.605500E-02  0.492179E+00 -0.243857E+00
   Pulay + GGA                   : -0.948263E+00 -0.329940E+00 -0.117764E+01
   Van der Waals                 :  0.694700E-02  0.558903E-02 -0.275260E-02
   ----------------------------------------------------------------
   Total forces(   1)            : -0.367296E+00  0.445019E+00 -0.769725E+00
  atom #    2
   Hellmann-Feynman              :  0.242866E+00  0.111367E-01 -0.116724E+00
   Ionic forces                  :  0.000000E+00  0.000000E+00  0.000000E+00
   Multipole                     :  0.192116E+00  0.368434E-01  0.103798E-01
   Pulay + GGA                   : -0.140886E+00 -0.319142E-02  0.400084E-01
   Van der Waals                 :  0.345721E-02 -0.444392E-02 -0.650188E-02
   ----------------------------------------------------------------
   Total forces(   2)            :  0.297553E+00  0.403448E-01 -0.728380E-01
  atom #    3
   Hellmann-Feynman              : -0.647527E+00 -0.113368E+02 -0.277673E+01
   Ionic forces                  :  0.000000E+00  0.000000E+00  0.000000E+00
   Multipole                     : -0.172465E+00  0.578893E-01 -0.857107E+00
   Pulay + GGA                   :  0.132663E+01  0.107659E+02  0.426974E+01
   Van der Waals                 :  0.211892E-02 -0.736904E-02 -0.644137E-02
   ----------------------------------------------------------------
   Total forces(   3)            :  0.508754E+00 -0.520409E+00  0.629461E+00
  atom #    4
   Hellmann-Feynman              : -0.100693E-01  0.228927E+00 -0.140121E+00
   Ionic forces                  :  0.000000E+00  0.000000E+00  0.000000E+00
   Multipole                     : -0.733836E-01  0.559146E-01 -0.625299E-01
   Pulay + GGA                   :  0.170137E+00 -0.179007E+00 -0.214175E-01
   Van der Waals                 : -0.177374E-02 -0.379268E-02 -0.682102E-02
   ----------------------------------------------------------------
   Total forces(   4)            :  0.849106E-01  0.102042E+00 -0.230889E+00
  atom #    5
   Hellmann-Feynman              : -0.649889E-01  0.348021E+00 -0.979691E-01
   Ionic forces                  :  0.000000E+00  0.000000E+00  0.000000E+00
   Multipole                     :  0.197907E-01  0.459340E-01 -0.103605E+00
   Pulay + GGA                   : -0.124260E+00 -0.184627E+00  0.844782E-01
   Van der Waals                 : -0.227035E-02 -0.418214E-02 -0.947223E-04
   ----------------------------------------------------------------
   Total forces(   5)            : -0.171729E+00  0.205146E+00 -0.117191E+00
  atom #    6
   Hellmann-Feynman              :  0.535693E+00 -0.742416E+00  0.633038E+00
   Ionic forces                  :  0.000000E+00  0.000000E+00  0.000000E+00
   Multipole                     : -0.893303E-01  0.596775E+00  0.210398E+00
   Pulay + GGA                   : -0.787750E-01 -0.281286E+00 -0.421753E+00
   Van der Waals                 : -0.488938E-02  0.702776E-02  0.579274E-02
   ----------------------------------------------------------------
   Total forces(   6)            :  0.362698E+00 -0.419899E+00  0.427476E+00
  atom #    7
   Hellmann-Feynman              : -0.260322E+00 -0.623486E-01 -0.564183E-01
   Ionic forces                  :  0.000000E+00  0.000000E+00  0.000000E+00
   Multipole                     : -0.120428E+00  0.500030E-01  0.316223E-01
   Pulay + GGA                   :  0.108760E+00  0.324786E-01  0.370756E-01
   Van der Waals                 : -0.216858E-02  0.248943E-02  0.747526E-02
   ----------------------------------------------------------------
   Total forces(   7)            : -0.274158E+00  0.226225E-01  0.197549E-01
  atom #    8
   Hellmann-Feynman              :  0.790838E-02  0.505352E-01  0.253512E+00
   Ionic forces                  :  0.000000E+00  0.000000E+00  0.000000E+00
   Multipole                     :  0.164805E-01  0.619335E-01  0.121681E+00
   Pulay + GGA                   : -0.422773E-01 -0.458601E-01 -0.107270E+00
   Van der Waals                 : -0.319096E-02  0.111933E-01  0.561170E-03
   ----------------------------------------------------------------
   Total forces(   8)            : -0.210793E-01  0.778019E-01  0.268484E+00
  atom #    9
   Hellmann-Feynman              :  0.968795E-01  0.455908E-01 -0.177060E+00
   Ionic forces                  :  0.000000E+00  0.000000E+00  0.000000E+00
   Multipole                     :  0.186418E-01  0.129321E+00 -0.937179E-02
   Pulay + GGA                   : -0.421569E-01 -0.912044E-01  0.492195E-01
   Van der Waals                 : -0.735185E-03  0.589621E-02  0.594699E-02
   ----------------------------------------------------------------
   Total forces(   9)            :  0.726292E-01  0.896035E-01 -0.131265E+00
  atom #   10
   Hellmann-Feynman              :  0.296803E+01  0.520844E+01  0.143870E+01
   Ionic forces                  :  0.000000E+00  0.000000E+00  0.000000E+00
   Multipole                     :  0.108671E+00 -0.200853E+00  0.318798E+00
   Pulay + GGA                   : -0.951084E+00 -0.326266E+01 -0.489003E+00
   Van der Waals                 :  0.536312E-02 -0.138123E-01 -0.289378E-04
   ----------------------------------------------------------------
   Total forces(  10)            :  0.213099E+01  0.173111E+01  0.126846E+01
  atom #   11
   Hellmann-Feynman              :  0.409774E+01 -0.212371E+01  0.137837E+02
   Ionic forces                  :  0.000000E+00  0.000000E+00  0.000000E+00
   Multipole                     :  0.148876E-01 -0.695092E+00  0.809157E+00
   Pulay + GGA                   : -0.335196E+01  0.368930E+01 -0.133229E+02
   Van der Waals                 : -0.189447E-02 -0.118565E-01  0.344708E-02
   ----------------------------------------------------------------
   Total forces(  11)            :  0.758776E+00  0.858640E+00  0.127341E+01
  atom #   12
   Hellmann-Feynman              :  0.100323E+01 -0.901652E+01 -0.133348E+02
   Ionic forces                  :  0.000000E+00  0.000000E+00  0.000000E+00
   Multipole                     : -0.610157E+00 -0.130693E+01 -0.522644E+00
   Pulay + GGA                   : -0.310285E+01  0.875888E+01  0.114837E+02
   Van der Waals                 :  0.107000E-02  0.842192E-02  0.238045E-02
   ----------------------------------------------------------------
   Total forces(  12)            : -0.270871E+01 -0.155615E+01 -0.237137E+01
  atom #   13
   Hellmann-Feynman              : -0.976899E+00 -0.986034E+00 -0.124595E-01
   Ionic forces                  :  0.000000E+00  0.000000E+00  0.000000E+00
   Multipole                     : -0.608562E-01  0.651126E-02  0.903018E-02
   Pulay + GGA                   :  0.362552E+00 -0.100211E+00 -0.188650E+00
   Van der Waals                 : -0.203357E-02  0.483891E-02 -0.296316E-02
   ----------------------------------------------------------------
   Total forces(  13)            : -0.677237E+00 -0.107489E+01 -0.195042E+00

  Timings for VdW correction (Tkatchenko-Scheffler 2009 or later):
  | CPU time:        0.090 s, Wall clock time:        0.090 s.
  Removing unitary transformations (pure translations, rotations) from forces on atoms.
  Atomic forces before filtering:
  | Net force on center of mass :  -0.390040E-02  0.983278E-03 -0.126957E-02 eV/A
  | Net torque on center of mass:  -0.783689E-02  0.431826E-02 -0.565219E-02 eV
  Atomic forces after filtering:
  | Net force on center of mass :  -0.892031E-16  0.178406E-15  0.178406E-15 eV/A
  | Net torque on center of mass:   0.896880E-15 -0.141613E-15  0.113290E-14 eV

  Energy and forces in a compact form:
  | Total energy uncorrected      :         -0.880231158000830E+04 eV
  | Total energy corrected        :         -0.880231158000830E+04 eV  <-- do not rely on this value for anything but (periodic) metals
  | Electronic free energy        :         -0.880231158000830E+04 eV
  Total atomic forces (unitary forces cleaned) [eV/Ang]:
  |   1         -0.366972788656096E+00          0.445065919720731E+00         -0.769543384088410E+00
  |   2          0.297876145170727E+00          0.406033692122717E-01         -0.724721066592920E-01
  |   3          0.509314195364216E+00         -0.520193291459067E+00          0.629562557472945E+00
  |   4          0.853852516561550E-01          0.102091117100040E+00         -0.230850808405309E+00
  |   5         -0.171165577146545E+00          0.205601324589776E+00         -0.116884044068630E+00
  |   6          0.362653895977194E+00         -0.420083958427428E+00          0.427809099927308E+00
  |   7         -0.274209967951213E+00          0.222231344572807E-01          0.199090961215292E-01
  |   8         -0.212994632072523E-01          0.774957119327144E-01          0.268880035545673E+00
  |   9          0.724957560807083E-01          0.895826402732396E-01         -0.130704037410390E+00
  |  10          0.213143256943263E+01          0.173094695523885E+01          0.126833669088892E+01
  |  11          0.759085788862288E+00          0.858317505441656E+00          0.127328340508313E+01
  |  12         -0.270798223065677E+01         -0.155632801918595E+01         -0.237176625723149E+01
  |  13         -0.676613574926036E+00         -0.107532240889412E+01         -0.195560247175979E+00

  ------------------------------------ 
  Start decomposition of the XC Energy 
  ------------------------------------ 
  X and C from original XC functional choice 
  Hartree-Fock Energy :          0.000000000 Ha              0.000000000 eV
  X Energy            :        -41.038109836 Ha          -1116.703785914 eV
  C Energy            :         -1.600264901 Ha            -43.545423529 eV
  Total XC Energy     :        -42.638374738 Ha          -1160.249209443 eV
  ------------------------------------ 
  LDA X and C from self-consistent density 
  X Energy LDA        :        -37.256085426 Ha          -1013.789665489 eV
  C Energy LDA        :         -3.138535078 Ha            -85.403884765 eV
  ------------------------------------ 
  End decomposition of the XC Energy 
  ------------------------------------ 

------------------------------------------------------------

------------------------------------------------------------------------------
  Final output of selected total energy values:

  The following output summarizes some interesting total energy values
  at the end of a run (AFTER all relaxation, molecular dynamics, etc.).

  | Total energy of the DFT / Hartree-Fock s.c.f. calculation      :          -8802.311580008 eV
  | Final zero-broadening corrected energy (caution - metals only) :          -8802.311580008 eV
  | For reference only, the value of 1 Hartree used in FHI-aims is :             27.211384500 eV

  Before relying on these values, please be sure to understand exactly which
  total energy value is referred to by a given number. Different objects may
  all carry the same name 'total energy'. Definitions:

  Total energy of the DFT / Hartree-Fock s.c.f. calculation:
  | Note that this energy does not include ANY quantities calculated after the
  | s.c.f. cycle, in particular not ANY RPA, MP2, etc. many-body perturbation terms.

  Final zero-broadening corrected energy:
  | For metallic systems only, a broadening of the occupation numbers at the Fermi
  | level can be extrapolated back to zero broadening by an electron-gas inspired
  | formula. For all systems that are not real metals, this value can be
  | meaningless and should be avoided.

------------------------------------------------------------------------------
  Methods described in the following list of references were used in this FHI-aims run.
  If you publish the results, please make sure to cite these reference if they apply.
  FHI-aims is an academic code, and for our developers (often, Ph.D. students
  and postdocs), scientific credit in the community is essential.
  Thank you for helping us!

  For any use of FHI-aims, please cite:

    Volker Blum, Ralf Gehrke, Felix Hanke, Paula Havu, Ville Havu,
    Xinguo Ren, Karsten Reuter, and Matthias Scheffler
    'Ab initio molecular simulations with numeric atom-centered orbitals'
    Computer Physics Communications 180, 2175-2196 (2009)
    http://dx.doi.org/10.1016/j.cpc.2009.06.022


  The scalable eigensolver library ELPA was used in your run.
  ELPA is essential especially for large systems on hundreds or thousands of CPUs.
  For ELPA, please cite:

    Andreas Marek, Volker Blum, Rainer Johanni, Ville Havu, Bruno Lang,
    Thomas Auckenthaler, Alexander Heinecke, Hans-Joachim Bungartz, and Hermann Lederer,
    'The ELPA Library - Scalable Parallel Eigenvalue Solutions
    for Electronic Structure Theory and Computational Science'
    The Journal of Physics: Condensed Matter 26, 213201 (2014).
    http://dx.doi.org/10.1088/0953-8984/26/21/213201


  The ELSI infrastructure was used in your run to solve the Kohn-Sham electronic structure.
  Please check out http://elsi-interchange.org to learn more.
  If scalability is important for your project, please acknowledge ELSI by citing:

    V. W-z. Yu, F. Corsetti, A. Garcia, W. P. Huhn, M. Jacquelin, W. Jia,
    B. Lange, L. Lin, J. Lu, W. Mi, A. Seifitokaldani, A. Vazquez-Mayagoitia,
    C. Yang, H. Yang, and V. Blum
    'ELSI: A unified software interface for Kohn-Sham electronic structure solvers'
    Computer Physics Communications 222, 267-285 (2018).
    http://dx.doi.org/10.1016/j.cpc.2017.09.007


  For the real-space grid partitioning and parallelization used in this calculation, please cite:

    Ville Havu, Volker Blum, Paula Havu, and Matthias Scheffler,
    'Efficient O(N) integration for all-electron electronic structure calculation'
    'using numerically tabulated basis functions'
    Journal of Computational Physics 228, 8367-8379 (2009).
    http://dx.doi.org/10.1016/j.jcp.2009.08.008

  Of course, there are many other important community references, e.g., those cited in the
  above references. Our list is limited to references that describe implementations in the
  FHI-aims code. The reason is purely practical (length of this list) - please credit others as well.

------------------------------------------------------------
          Leaving FHI-aims.
          Date     :  20200902, Time     :  102156.185

          Computational steps:
          | Number of self-consistency cycles          :           15
          | Number of SCF (re)initializations          :            1

          Detailed time accounting                     :  max(cpu_time)    wall_clock(cpu1)
          | Total time                                 :       21.479 s          21.555 s
          | Preparation time                           :        0.148 s           0.149 s
          | Boundary condition initalization           :        0.000 s           0.000 s
          | Grid partitioning                          :        0.112 s           0.112 s
          | Preloading free-atom quantities on grid    :        0.002 s           0.003 s
          | Free-atom superposition energy             :        0.085 s           0.085 s
          | Total time for integrations                :        8.136 s           8.141 s
          | Total time for solution of K.-S. equations :        0.035 s           0.036 s
          | Total time for density & force components  :        6.741 s           6.747 s
          | Total time for mixing                      :        0.199 s           0.202 s
          | Total time for Hartree multipole update    :        0.131 s           0.134 s
          | Total time for Hartree multipole sum       :        5.490 s           5.498 s
          | Total time for total energy evaluation     :        0.002 s           0.002 s
          | Total time for vdW correction              :        0.090 s           0.090 s

          Partial memory accounting:
          | Residual value for overall tracked memory usage across tasks :           0.000 MB (should be 0.000 MB)
          | Peak values for overall tracked memory usage (after allocating hessian_basis_wave):
          |   Minimum:        1.622 MB (on task 1)
          |   Maximum:        1.622 MB (on task 1)
          |   Average:        1.622 MB
          | Largest tracked array allocation (hessian_basis_wave):
          |   Minimum:        0.794 MB (on task 1)
          |   Maximum:        0.794 MB (on task 1)
          |   Average:        0.794 MB
          Note:  These values currently only include a subset of arrays which are explicitly tracked.
          The "true" memory usage will be greater.

          Have a nice day.
------------------------------------------------------------
