  MPI-parallelism will be employed.
------------------------------------------------------------
          Invoking FHI-aims ...
          Version 171221_1
          Compiled on 2019/09/09 at 14:39:39 on host puhti-login2.bullx.

          When using FHI-aims, please cite the following reference:

          Volker Blum, Ralf Gehrke, Felix Hanke, Paula Havu,
          Ville Havu, Xinguo Ren, Karsten Reuter, and Matthias Scheffler,
          'Ab Initio Molecular Simulations with Numeric Atom-Centered Orbitals',
          Computer Physics Communications 180, 2175-2196 (2009)

          For any questions about FHI-aims, please visit the aimsclub website
          with its forums and wiki. Contributions to both the forums and the
          wiki are warmly encouraged - they are for you, and everyone is welcome there.

------------------------------------------------------------



  Date     :  20200710, Time     :  150649.555
  Time zero on CPU 1             :   0.121180000000000E-01  s.
  Internal wall clock time zero  :           363625609.555  s.

  FHI-aims created a unique identifier for this run for later identification
  aims_uuid : 8C1A272C-A03A-41F1-A42B-727D290ADBB1

  Using        1 parallel tasks.
  Task        0 on host r18c46.bullx reporting.

  Performing system and environment tests:
  | Environment variable OMP_NUM_THREADS correctly set to 1.
  | Stacksize not measured: no C compiler
  | Checking for scalapack...
  | Testing pdtran()...
  | All pdtran() tests passed.

  Obtaining array dimensions for all initial allocations:
  
  -----------------------------------------------------------------------
  Parsing control.in (first pass over file, find array dimensions only).
  The contents of control.in will be repeated verbatim below
  unless switched off by setting 'verbatim_writeout .false.' .
  in the first line of control.in .
  -----------------------------------------------------------------------
  
  #########################################################################################
  #
  #  Volker Blum, FHI 2009 : Test run input file control.in for simple H2O
  #
  #########################################################################################
  #
  #  Physical model
  #
    xc                 pbe
    vdw_correction_hirshfeld
    spin               none
    relativistic       none
    charge             0.
  #
  #  SCF convergence
  #
    occupation_type    gaussian 0.01
    mixer              pulay
      n_max_pulay        10
      charge_mix_param   0.2
    sc_accuracy_rho    1E-5
    sc_accuracy_eev    1E-3
    sc_accuracy_etot   1E-6
    sc_accuracy_forces 1E-4
    sc_iter_limit      100
  #
  #  Relaxation
  #
  #  relax_geometry   bfgs 1.e-3
  #
  ################################################################################
  #
  #  FHI-aims code project
  #  VB, Fritz-Haber Institut, 2009
  #
  #  Suggested "light" defaults for H atom (to be pasted into control.in file)
  #  Be sure to double-check any results obtained with these settings for post-processing,
  #  e.g., with the "tight" defaults and larger basis sets.
  #
  ################################################################################
    species        H
  #     global species definitions
      nucleus             1
      mass                1.00794
  #
      l_hartree           4
  #
      cut_pot             3.5  1.5  1.0
      basis_dep_cutoff    1e-4
  #
      radial_base         24 5.0
      radial_multiplier   1
      angular_grids       specified
        division   0.2421   50
        division   0.3822  110
        division   0.4799  194
        division   0.5341  302
  #      division   0.5626  434
  #      division   0.5922  590
  #      division   0.6542  770
  #      division   0.6868 1202
  #      outer_grid  770
        outer_grid  302
  ################################################################################
  #
  #  Definition of "minimal" basis
  #
  ################################################################################
  #     valence basis states
      valence      1  s   1.
  #     ion occupancy
      ion_occ      1  s   0.5
  ################################################################################
  #
  #  Suggested additional basis functions. For production calculations,
  #  uncomment them one after another (the most important basis functions are
  #  listed first).
  #
  #  Basis constructed for dimers: 0.5 A, 0.7 A, 1.0 A, 1.5 A, 2.5 A
  #
  ################################################################################
  #  "First tier" - improvements: -1014.90 meV to -62.69 meV
       hydro 2 s 2.1
       hydro 2 p 3.5
  #  "Second tier" - improvements: -12.89 meV to -1.83 meV
  #     hydro 1 s 0.85
  #     hydro 2 p 3.7
  #     hydro 2 s 1.2
  #     hydro 3 d 7
  #  "Third tier" - improvements: -0.25 meV to -0.12 meV
  #     hydro 4 f 11.2
  #     hydro 3 p 4.8
  #     hydro 4 d 9
  #     hydro 3 s 3.2
  ################################################################################
  #
  #  FHI-aims code project
  #  VB, Fritz-Haber Institut, 2009
  #
  #  Suggested "light" defaults for C atom (to be pasted into control.in file)
  #  Be sure to double-check any results obtained with these settings for post-processing,
  #  e.g., with the "tight" defaults and larger basis sets.
  #
  ################################################################################
    species        C
  #     global species definitions
      nucleus             6
      mass                12.0107
  #
      l_hartree           4
  #
      cut_pot             3.5  1.5  1.0
      basis_dep_cutoff    1e-4
  #
      radial_base         34 5.0
      radial_multiplier   1
      angular_grids specified
        division   0.3326   50
        division   0.5710  110
        division   0.7727  194
        division   0.8772  302
  #      division   0.9334  434
  #      division   0.9625  590
  #      division   0.9924  770
  #      division   1.0230  974
  #      division   1.4589 1202
  #     outer_grid  974
       outer_grid 302
  ################################################################################
  #
  #  Definition of "minimal" basis
  #
  ################################################################################
  #     valence basis states
      valence      2  s   2.
      valence      2  p   2.
  #     ion occupancy
      ion_occ      2  s   1.
      ion_occ      2  p   1.
  ################################################################################
  #
  #  Suggested additional basis functions. For production calculations,
  #  uncomment them one after another (the most important basis functions are
  #  listed first).
  #
  #  Constructed for dimers: 1.0 A, 1.25 A, 1.5 A, 2.0 A, 3.0 A
  #
  ################################################################################
  #  "First tier" - improvements: -1214.57 meV to -155.61 meV
       hydro 2 p 1.7
       hydro 3 d 6
       hydro 2 s 4.9
  #  "Second tier" - improvements: -67.75 meV to -5.23 meV
  #     hydro 4 f 9.8
  #     hydro 3 p 5.2
  #     hydro 3 s 4.3
  #     hydro 5 g 14.4
  #     hydro 3 d 6.2
  #  "Third tier" - improvements: -2.43 meV to -0.60 meV
  #     hydro 2 p 5.6
  #     hydro 2 s 1.4
  #     hydro 3 d 4.9
  #     hydro 4 f 11.2
  #  "Fourth tier" - improvements: -0.39 meV to -0.18 meV
  #     hydro 2 p 2.1
  #     hydro 5 g 16.4
  #     hydro 4 d 13.2
  #     hydro 3 s 13.6
  #     hydro 4 f 17.6
  #  Further basis functions - improvements: -0.08 meV and below
  #     hydro 3 s 2
  #     hydro 3 p 6
  #     hydro 4 d 20
  ################################################################################
  #
  #  FHI-aims code project
  #  VB, Fritz-Haber Institut, 2009
  #
  #  Suggested "light" defaults for N atom (to be pasted into control.in file)
  #  Be sure to double-check any results obtained with these settings for post-processing,
  #  e.g., with the "tight" defaults and larger basis sets.
  #
  ################################################################################
    species        N
  #     global species definitions
      nucleus             7
      mass                14.0067
  #
      l_hartree           4
  #
      cut_pot             3.5  1.5  1.0
      basis_dep_cutoff    1e-4
  #
      radial_base         35 5.0
      radial_multiplier   1
      angular_grids       specified
        division   0.2599   50
        division   0.4601  110
        division   0.5885  194
        division   0.6503  302
  #      division   0.6939  434
  #      division   0.7396  590
  #      division   0.7632  770
  #      division   0.8122  974
  #      division   1.1604 1202
  #      outer_grid  974
        outer_grid  302
  ################################################################################
  #
  #  Definition of "minimal" basis
  #
  ################################################################################
  #     valence basis states
      valence      2  s   2.
      valence      2  p   3.
  #     ion occupancy
      ion_occ      2  s   1.
      ion_occ      2  p   2.
  ################################################################################
  #
  #  Suggested additional basis functions. For production calculations,
  #  uncomment them one after another (the most important basis functions are
  #  listed first).
  #
  #  Constructed for dimers: 1.0 A, 1.1 A, 1.5 A, 2.0 A, 3.0 A
  #
  ################################################################################
  #  "First tier" - improvements: -1193.42 meV to -220.60 meV
       hydro 2 p 1.8
       hydro 3 d 6.8
       hydro 3 s 5.8
  #  "Second tier" - improvements: -80.21 meV to -6.86 meV
  #     hydro 4 f 10.8
  #     hydro 3 p 5.8
  #     hydro 1 s 0.8
  #     hydro 5 g 16
  #     hydro 3 d 4.9
  #  "Third tier" - improvements: -4.29 meV to -0.53 meV
  #     hydro 3 s 16
  #     ionic 2 p auto
  #     hydro 3 d 6.6
  #     hydro 4 f 11.6
  #  "Fourth tier" - improvements: -0.75 meV to -0.25 meV
  #     hydro 2 p 4.5
  #     hydro 2 s 2.4
  #     hydro 5 g 14.4
  #     hydro 4 d 14.4
  #     hydro 4 f 16.8
  # Further basis functions - -0.21 meV and below
  #     hydro 3 p 14.8
  #     hydro 3 s 4.4
  #     hydro 3 d 19.6
  #     hydro 5 g 12.8
  ################################################################################
  #
  #  FHI-aims code project
  #  VB, Fritz-Haber Institut, 2009
  #
  #  Suggested "light" defaults for O atom (to be pasted into control.in file)
  #  Be sure to double-check any results obtained with these settings for post-processing,
  #  e.g., with the "tight" defaults and larger basis sets.
  #
  ################################################################################
    species        O
  #     global species definitions
      nucleus             8
      mass                15.9994
  #
      l_hartree           4
  #
      cut_pot             3.5  1.5  1.0
      basis_dep_cutoff    1e-4
  #
      radial_base         36 5.0
      radial_multiplier   1
       angular_grids specified
        division   0.2659   50
        division   0.4451  110
        division   0.6052  194
        division   0.7543  302
  #      division   0.8014  434
  #      division   0.8507  590
  #      division   0.8762  770
  #      division   0.9023  974
  #      division   1.2339 1202
  #      outer_grid 974
        outer_grid 302
  ################################################################################
  #
  #  Definition of "minimal" basis
  #
  ################################################################################
  #     valence basis states
      valence      2  s   2.
      valence      2  p   4.
  #     ion occupancy
      ion_occ      2  s   1.
      ion_occ      2  p   3.
  ################################################################################
  #
  #  Suggested additional basis functions. For production calculations,
  #  uncomment them one after another (the most important basis functions are
  #  listed first).
  #
  #  Constructed for dimers: 1.0 A, 1.208 A, 1.5 A, 2.0 A, 3.0 A
  #
  ################################################################################
  #  "First tier" - improvements: -699.05 meV to -159.38 meV
       hydro 2 p 1.8
       hydro 3 d 7.6
       hydro 3 s 6.4
  #  "Second tier" - improvements: -49.91 meV to -5.39 meV
  #     hydro 4 f 11.6
  #     hydro 3 p 6.2
  #     hydro 3 d 5.6
  #     hydro 5 g 17.6
  #     hydro 1 s 0.75
  #  "Third tier" - improvements: -2.83 meV to -0.50 meV
  #     ionic 2 p auto
  #     hydro 4 f 10.8
  #     hydro 4 d 4.7
  #     hydro 2 s 6.8
  #  "Fourth tier" - improvements: -0.40 meV to -0.12 meV
  #     hydro 3 p 5
  #     hydro 3 s 3.3
  #     hydro 5 g 15.6
  #     hydro 4 f 17.6
  #     hydro 4 d 14
  # Further basis functions - -0.08 meV and below
  #     hydro 3 s 2.1
  #     hydro 4 d 11.6
  #     hydro 3 p 16
  #     hydro 2 s 17.2
  
  -----------------------------------------------------------------------
  Completed first pass over input file control.in .
  -----------------------------------------------------------------------
  
  
  -----------------------------------------------------------------------
  Parsing geometry.in (first pass over file, find array dimensions only).
  The contents of geometry.in will be repeated verbatim below
  unless switched off by setting 'verbatim_writeout .false.' .
  in the first line of geometry.in .
  -----------------------------------------------------------------------
  
  atom  0.00000 0.00000 0.00000 C
  atom  1.09300 0.00000 0.00000 H
  atom  -0.47961 0.00000 -1.41207 N
  atom  0.29216 -0.27760 -2.01964 H
  atom  -1.24886 -0.66131 -1.49599 H
  atom  -0.49584 1.26211 0.72868 C
  atom  -1.58789 1.28919 0.74431 H
  atom  -0.13407 1.27425 1.75947 H
  atom  -0.13407 2.16087 0.22380 H
  atom  -0.39425 -1.28861 0.74398 C
  atom  -0.10189 -1.56493 1.88303 O
  atom  -1.10210 -2.13717 0.06896 O
  atom  -1.45209 -1.52754 -0.60248 H
  
  -----------------------------------------------------------------------
  Completed first pass over input file geometry.in .
  -----------------------------------------------------------------------
  

  Basic array size parameters:
  | Number of species                 :        4
  | Number of atoms                   :       13
  | Max. basis fn. angular momentum   :        2
  | Max. atomic/ionic basis occupied n:        2
  | Max. number of basis fn. types    :        2
  | Max. radial fns per species/type  :        3
  | Max. logarithmic grid size        :     1301
  | Max. radial integration grid size :       36
  | Max. angular integration grid size:      302
  | Max. angular grid division number :        8
  | Radial grid for Hartree potential :     1301
  | Number of spin channels           :        1

------------------------------------------------------------
          Reading file control.in.
------------------------------------------------------------
  XC: Using PBE gradient-corrected functionals.
  Spin treatment: No spin polarisation.
  Non-relativistic treatment of kinetic energy.
  Charge =   0.000000E+00: Neutral system requested explicitly.
  Occupation type: Gaussian broadening, width =   0.100000E-01 eV.
  Using pulay charge density mixing.
  Pulay mixing - number of memorized iterations:   10
  Charge density mixing - mixing parameter:     0.2000
  Convergence accuracy of self-consistent charge density:  0.1000E-04
  Convergence accuracy of sum of eigenvalues:  0.1000E-02
  Convergence accuracy of total energy:  0.1000E-05
  Convergence accuracy of forces:  0.1000E-03
  Maximum number of s.-c. iterations  :   100
 
  Reading configuration options for species H                   .
  | Found nuclear charge :   1.0000
  | Found atomic mass :    1.00794000000000      amu
  | Found l_max for Hartree potential  :   4
  | Found cutoff potl. onset [A], width [A], scale factor :    3.50000    1.50000    1.00000
  | Threshold for basis-dependent cutoff potential is   0.100000E-03
  | Found data for basic radial integration grid :    24 points, outermost radius =    5.000 A
  | Found multiplier for basic radial grid :   1
  | Found angular grid specification: user-specified.
  | Specified grid contains     5 separate shells.
  | Check grid settings after all constraints further below.
  | Found free-atom valence shell :  1 s   1.000
  | No ionic wave fns used. Skipping ion_occ.
  | Found hydrogenic basis function :  2 s   2.100
  | Found hydrogenic basis function :  2 p   3.500
  Species H                   : Missing cutoff potential type.
  Defaulting to exp(1/x)/(1-x)^2 type cutoff potential.
  Species H : No 'logarithmic' tag. Using default grid for free atom:
  | Default logarithmic grid data [bohr] : 0.1000E-03 0.1000E+03 0.1012E+01
  Species H : On-site basis accuracy parameter (for Gram-Schmidt orthonormalisation) not specified.
  Using default value basis_acc =  0.1000000E-03.
  Species H                   : Using default innermost maximum threshold i_radial=  2 for radial functions.
  Species H                   : Default cutoff onset for free atom density etc. : 0.35000000E+01 AA.
  Species H                   : Basic radial grid will be enhanced according to radial_multiplier =   1, to contain    24 grid points.
 
  Reading configuration options for species C                   .
  | Found nuclear charge :   6.0000
  | Found atomic mass :    12.0107000000000      amu
  | Found l_max for Hartree potential  :   4
  | Found cutoff potl. onset [A], width [A], scale factor :    3.50000    1.50000    1.00000
  | Threshold for basis-dependent cutoff potential is   0.100000E-03
  | Found data for basic radial integration grid :    34 points, outermost radius =    5.000 A
  | Found multiplier for basic radial grid :   1
  | Found angular grid specification: user-specified.
  | Specified grid contains     5 separate shells.
  | Check grid settings after all constraints further below.
  | Found free-atom valence shell :  2 s   2.000
  | Found free-atom valence shell :  2 p   2.000
  | No ionic wave fns used. Skipping ion_occ.
  | No ionic wave fns used. Skipping ion_occ.
  | Found hydrogenic basis function :  2 p   1.700
  | Found hydrogenic basis function :  3 d   6.000
  | Found hydrogenic basis function :  2 s   4.900
  Species C                   : Missing cutoff potential type.
  Defaulting to exp(1/x)/(1-x)^2 type cutoff potential.
  Species C : No 'logarithmic' tag. Using default grid for free atom:
  | Default logarithmic grid data [bohr] : 0.1000E-03 0.1000E+03 0.1012E+01
  Species C : On-site basis accuracy parameter (for Gram-Schmidt orthonormalisation) not specified.
  Using default value basis_acc =  0.1000000E-03.
  Species C                   : Using default innermost maximum threshold i_radial=  2 for radial functions.
  Species C                   : Default cutoff onset for free atom density etc. : 0.35000000E+01 AA.
  Species C                   : Basic radial grid will be enhanced according to radial_multiplier =   1, to contain    34 grid points.
 
  Reading configuration options for species N                   .
  | Found nuclear charge :   7.0000
  | Found atomic mass :    14.0067000000000      amu
  | Found l_max for Hartree potential  :   4
  | Found cutoff potl. onset [A], width [A], scale factor :    3.50000    1.50000    1.00000
  | Threshold for basis-dependent cutoff potential is   0.100000E-03
  | Found data for basic radial integration grid :    35 points, outermost radius =    5.000 A
  | Found multiplier for basic radial grid :   1
  | Found angular grid specification: user-specified.
  | Specified grid contains     5 separate shells.
  | Check grid settings after all constraints further below.
  | Found free-atom valence shell :  2 s   2.000
  | Found free-atom valence shell :  2 p   3.000
  | No ionic wave fns used. Skipping ion_occ.
  | No ionic wave fns used. Skipping ion_occ.
  | Found hydrogenic basis function :  2 p   1.800
  | Found hydrogenic basis function :  3 d   6.800
  | Found hydrogenic basis function :  3 s   5.800
  Species N                   : Missing cutoff potential type.
  Defaulting to exp(1/x)/(1-x)^2 type cutoff potential.
  Species N : No 'logarithmic' tag. Using default grid for free atom:
  | Default logarithmic grid data [bohr] : 0.1000E-03 0.1000E+03 0.1012E+01
  Species N : On-site basis accuracy parameter (for Gram-Schmidt orthonormalisation) not specified.
  Using default value basis_acc =  0.1000000E-03.
  Species N                   : Using default innermost maximum threshold i_radial=  2 for radial functions.
  Species N                   : Default cutoff onset for free atom density etc. : 0.35000000E+01 AA.
  Species N                   : Basic radial grid will be enhanced according to radial_multiplier =   1, to contain    35 grid points.
 
  Reading configuration options for species O                   .
  | Found nuclear charge :   8.0000
  | Found atomic mass :    15.9994000000000      amu
  | Found l_max for Hartree potential  :   4
  | Found cutoff potl. onset [A], width [A], scale factor :    3.50000    1.50000    1.00000
  | Threshold for basis-dependent cutoff potential is   0.100000E-03
  | Found data for basic radial integration grid :    36 points, outermost radius =    5.000 A
  | Found multiplier for basic radial grid :   1
  | Found angular grid specification: user-specified.
  | Specified grid contains     5 separate shells.
  | Check grid settings after all constraints further below.
  | Found free-atom valence shell :  2 s   2.000
  | Found free-atom valence shell :  2 p   4.000
  | No ionic wave fns used. Skipping ion_occ.
  | No ionic wave fns used. Skipping ion_occ.
  | Found hydrogenic basis function :  2 p   1.800
  | Found hydrogenic basis function :  3 d   7.600
  | Found hydrogenic basis function :  3 s   6.400
  Species O                   : Missing cutoff potential type.
  Defaulting to exp(1/x)/(1-x)^2 type cutoff potential.
  Species O : No 'logarithmic' tag. Using default grid for free atom:
  | Default logarithmic grid data [bohr] : 0.1000E-03 0.1000E+03 0.1012E+01
  Species O : On-site basis accuracy parameter (for Gram-Schmidt orthonormalisation) not specified.
  Using default value basis_acc =  0.1000000E-03.
  Species O                   : Using default innermost maximum threshold i_radial=  2 for radial functions.
  Species O                   : Default cutoff onset for free atom density etc. : 0.35000000E+01 AA.
  Species O                   : Basic radial grid will be enhanced according to radial_multiplier =   1, to contain    36 grid points.
 
  Finished reading input file 'control.in'. Consistency checks are next.
 
  MPI_IN_PLACE appears to work with this MPI implementation.
  | Keeping use_mpi_in_place .true. (see manual).
  Target number of points in a grid batch is not set. Defaulting to  100
  Method for grid partitioning is not set. Defaulting to parallel hash+maxmin partitioning.
  Batch size limit is not set. Defaulting to    200
  By default, will store active basis functions for each batch.
  If in need of memory, prune_basis_once .false. can be used to disable this option.
  communication_type for Hartree potential was not specified.
  Defaulting to calc_hartree .
  Pulay mixer: Number of initial linear mixing iterations not set.
  Defaulting to    0 iterations.
  Work space size for distributed Hartree potential not set.
  Defaulting to   0.200000E+03 MB.
  Algorithm-dependent basis array size parameters:
  | n_max_pulay                         :       10
  Presetting      1001 iterations before the initial mixing cycle
  is restarted anyway using the sc_init_iter criterion / keyword.
  Presetting a factor      1.000 between actual scf density residual
  and density convergence criterion sc_accuracy_rho below which sc_init_iter
  takes no effect.
  Geometry relaxation not requested: no relaxation will be performed.
  Handling of forces: Unphysical translation and rotation will be removed from forces.
  No accuracy limit for integral partition fn. given. Defaulting to  0.1000E-14.
  No threshold value for u(r) in integrations given. Defaulting to  0.1000E-05.
  No accuracy for occupation numbers given. Defaulting to  0.1000E-12.
  No threshold value for occupation numbers given. Defaulting to  0.0000E+00.
  No accuracy for fermi level given. Defaulting to  0.1000E-19.
  Maximum # of iterations to find E_F not set. Defaulting to  200.
  Preferred method for the eigenvalue solver ('KS_method') not specified in 'control.in'.
  Defaulting to serial version, 'lapack_fast'.
  Will not use alltoall communication since running on < 1024 CPUs.
  Threshold for basis singularities not set.
  Default threshold for basis singularities:  0.1000E-04
  partition_type (choice of integration weights) for integrals was not specified.
  | Using a version of the partition function of Stratmann and coworkers ('stratmann_smoother').
  | At each grid point, the set of atoms used to build the partition table is smoothly restricted to
  | only those atoms whose free-atom density would be non-zero at that grid point.
  Partitioning for Hartree potential was not defined. Using partition_type for integrals.
  | Adjusted default value of keyword multip_moments_threshold to:       0.10000000E-11
  | This value may affect high angular momentum components of the Hartree potential in periodic systems.
  No q(lm)/r^(l+1) cutoff set for long-range Hartree potential.
  | Using default value of  0.100000E-09 .
  | Verify using the multipole_threshold keyword.
  Defaulting to new monopole extrapolation.
  Density update method: automatic selection selected.
------------------------------------------------------------


------------------------------------------------------------
          Reading geometry description geometry.in.
------------------------------------------------------------
  Input structure read successfully.
  The structure contains       13 atoms,  and a total of         48.000 electrons.

  Input geometry:
  | No unit cell requested.
  | Atomic structure:
  |       Atom                x [A]            y [A]            z [A]
  |    1: Species C             0.00000000        0.00000000        0.00000000
  |    2: Species H             1.09300000        0.00000000        0.00000000
  |    3: Species N            -0.47961000        0.00000000       -1.41207000
  |    4: Species H             0.29216000       -0.27760000       -2.01964000
  |    5: Species H            -1.24886000       -0.66131000       -1.49599000
  |    6: Species C            -0.49584000        1.26211000        0.72868000
  |    7: Species H            -1.58789000        1.28919000        0.74431000
  |    8: Species H            -0.13407000        1.27425000        1.75947000
  |    9: Species H            -0.13407000        2.16087000        0.22380000
  |   10: Species C            -0.39425000       -1.28861000        0.74398000
  |   11: Species O            -0.10189000       -1.56493000        1.88303000
  |   12: Species O            -1.10210000       -2.13717000        0.06896000
  |   13: Species H            -1.45209000       -1.52754000       -0.60248000
  |

  | The smallest distance between any two atoms is         0.97209743 AA.
  |
  | The first atom of this pair is atom number                     12 .
  | The second atom of this pair is atom number                    13 .

  Number of empty states per atom not set in control.in - providing a guess from actual geometry.
  | Total number of empty states used during s.c.f. cycle:       29
  If you use a very high smearing, use empty_states (per atom!) in control.in to increase this value.

  Structure-dependent array size parameters: 
  | Maximum number of distinct radial functions  :       21
  | Maximum number of basis functions            :      119
  | Number of Kohn-Sham states (occupied + empty):       53
------------------------------------------------------------

------------------------------------------------------------
          Preparing all fixed parts of the calculation.
------------------------------------------------------------
  Determining machine precision:
    2.225073858507201E-308
  Setting up grids for atomic and cluster calculations.

  Creating wave function, potential, and density for free atoms.

  Species: H

  List of occupied orbitals and eigenvalues:
    n    l              occ      energy [Ha]    energy [eV]
    1    0           1.0000        -0.237589        -6.4651


  Species: C

  List of occupied orbitals and eigenvalues:
    n    l              occ      energy [Ha]    energy [eV]
    1    0           2.0000       -10.038835      -273.1706
    2    0           2.0000        -0.502696       -13.6791
    2    1           2.0000        -0.191971        -5.2238


  Species: N

  List of occupied orbitals and eigenvalues:
    n    l              occ      energy [Ha]    energy [eV]
    1    0           2.0000       -14.128000      -384.4424
    2    0           2.0000        -0.681077       -18.5330
    2    1           3.0000        -0.259788        -7.0692


  Species: O

  List of occupied orbitals and eigenvalues:
    n    l              occ      energy [Ha]    energy [eV]
    1    0           2.0000       -18.898188      -514.2459
    2    0           2.0000        -0.878505       -23.9053
    2    1           4.0000        -0.331779        -9.0282

  Creating fixed part of basis set: Ionic, confined, hydrogenic.
 
  H                    hydrogenic:
 
  List of hydrogenic basis orbitals: 
    n    l      effective z      eigenvalue [eV]  inner max. [A]     outer max. [A]     outer radius [A]   
    2    0         2.100000       -14.9728           0.193243           1.317208           4.583499
    2    1         3.500000       -41.6669           0.602369           0.602369           3.723403
 
 
  C                    hydrogenic:
 
  List of hydrogenic basis orbitals: 
    n    l      effective z      eigenvalue [eV]  inner max. [A]     outer max. [A]     outer radius [A]   
    2    1         1.700000        -9.7616           1.230570           1.230570           4.607917
    3    2         6.000000       -54.4224           0.792453           0.792453           3.883070
    2    0         4.900000       -81.6679           0.082559           0.562749           3.078220
 
 
  N                    hydrogenic:
 
  List of hydrogenic basis orbitals: 
    n    l      effective z      eigenvalue [eV]  inner max. [A]     outer max. [A]     outer radius [A]   
    2    1         1.800000       -10.9749           1.177451           1.177451           4.573712
    3    2         6.800000       -69.9026           0.704619           0.704619           3.538137
    3    0         5.800000       -50.8545           0.067388           1.191934           4.250239
 
 
  O                    hydrogenic:
 
  List of hydrogenic basis orbitals: 
    n    l      effective z      eigenvalue [eV]  inner max. [A]     outer max. [A]     outer radius [A]   
    2    1         1.800000       -10.9749           1.164242           1.164242           4.578029
    3    2         7.600000       -87.3180           0.624125           0.624125           3.251020
    3    0         6.400000       -61.9207           0.061167           1.081902           4.001998
 

  Adding cutoff potential to free-atom effective potential.
  Creating atomic-like basis functions for current effective potential.

  Species H                   :

  List of atomic basis orbitals and eigenvalues:
    n    l      energy [Ha]    energy [eV]    outer radius [A]
    1    0        -0.237589        -6.4651       4.527807


  Species C                   :

  List of atomic basis orbitals and eigenvalues:
    n    l      energy [Ha]    energy [eV]    outer radius [A]
    1    0       -10.038835      -273.1706       1.934409
    2    0        -0.502696       -13.6791       4.496620
    2    1        -0.191971        -5.2238       4.551928


  Species N                   :

  List of atomic basis orbitals and eigenvalues:
    n    l      energy [Ha]    energy [eV]    outer radius [A]
    1    0       -14.128000      -384.4424       1.637919
    2    0        -0.681077       -18.5330       4.463241
    2    1        -0.259788        -7.0692       4.518138


  Species O                   :

  List of atomic basis orbitals and eigenvalues:
    n    l      energy [Ha]    energy [eV]    outer radius [A]
    1    0       -18.898188      -514.2459       1.415765
    2    0        -0.878505       -23.9053       4.413171
    2    1        -0.331779        -9.0282       4.522403

  Assembling full basis from fixed parts.
  | Species H :   atomic orbital   1 s accepted.
  | Species H :    hydro orbital   2 s accepted.
  | Species H :    hydro orbital   2 p accepted.
  | Species C :   atomic orbital   1 s accepted.
  | Species C :    hydro orbital   2 s accepted.
  | Species C :   atomic orbital   2 s accepted.
  | Species C :   atomic orbital   2 p accepted.
  | Species C :    hydro orbital   2 p accepted.
  | Species C :    hydro orbital   3 d accepted.
  | Species N :   atomic orbital   1 s accepted.
  | Species N :    hydro orbital   3 s accepted.
  | Species N :   atomic orbital   2 s accepted.
  | Species N :   atomic orbital   2 p accepted.
  | Species N :    hydro orbital   2 p accepted.
  | Species N :    hydro orbital   3 d accepted.
  | Species O :   atomic orbital   1 s accepted.
  | Species O :    hydro orbital   3 s accepted.
  | Species O :   atomic orbital   2 s accepted.
  | Species O :   atomic orbital   2 p accepted.
  | Species O :    hydro orbital   2 p accepted.
  | Species O :    hydro orbital   3 d accepted.
 
  Basis size parameters after reduction:
  | Total number of radial functions:       21
  | Total number of basis functions :      119
 
  Per-task memory consumption for arrays in subroutine allocate_ext:
  |           5.250512MB.
  Testing on-site integration grid accuracy.
  |  Species  Function  <phi|h_atom|phi> (log., in eV)  <phi|h_atom|phi> (rad., in eV)
           1        1                 -6.4663192853                 -6.4651273558
           1        2                 13.7111246313                 13.7170609718
           1        3                 25.2673269279                 25.2674696378
           2        4               -273.1705927641               -273.1705631568
           2        5                -10.7109323383                -10.7107120029
           2        6                 17.4381822266                 17.4352413244
           2        7                 -5.2255326521                 -5.2270484734
           2        8                  8.6835629259                  8.6603288385
           2        9                 27.4952418996                 27.4953360207
           3       10               -384.4424306495               -384.4423701208
           3       11                 12.5842251816                 12.5842222903
           3       12                -15.7264628251                -15.7264433455
           3       13                 -7.0696854293                 -7.0701769954
           3       14                  8.8090390882                  8.7901077751
           3       15                 35.9586762123                 35.9588528632
           4       16               -514.2458688638               -514.2457643834
           4       17                 15.1795651126                 15.1795290741
           4       18                -21.5359799773                -21.5360846186
           4       19                 -9.0283069236                 -9.0284644067
           4       20                  8.3027758564                  8.2834874195
           4       21                 45.8339351984                 45.8338762259

  Preparing densities etc. for the partition functions (integrals / Hartree potential).

  Preparations completed.
  max(cpu_time)          :      0.147 s.
  Wall clock time (cpu1) :      0.151 s.
------------------------------------------------------------

------------------------------------------------------------
          Begin self-consistency loop: Initialization.

          Date     :  20200710, Time     :  150649.721
------------------------------------------------------------

  Initializing index lists of integration centers etc. from given atomic structure:
  | Number of centers in hartree potential         :        13
  | Number of centers in hartree multipole         :        13
  | Number of centers in electron density summation:        13
  | Number of centers in basis integrals           :        13
  | Number of centers in integrals                 :        13
  | Number of centers in hamiltonian               :        13
  Partitioning the integration grid into batches with parallel hashing+maxmin method.
  | Number of batches:      954
  | Maximal batch size:     139
  | Minimal batch size:      66
  | Average batch size:      73.004
  | Standard deviation of batch sizes:      17.760

  Integration load balanced across     1 MPI tasks.
  Work distribution over tasks is as follows:
  Task     0 has      69646 integration points.
  Initializing partition tables, free-atom densities, potentials, etc. across the integration grid (initialize_grid_storage).
  | initialize_grid_storage: Actual outermost partition radius vs. multipole_radius_free
  | (-- VB: in principle, multipole_radius_free should be larger, hence this output)
  | Species        1: Confinement radius =              4.999999999999999 AA, multipole_radius_free =              5.054417573612229 AA.
  | Species        1: outer_partition_radius set to              5.054417573612229 AA .
  | Species        2: Confinement radius =              4.999999999999999 AA, multipole_radius_free =              5.019602836301480 AA.
  | Species        2: outer_partition_radius set to              5.019602836301480 AA .
  | Species        3: Confinement radius =              4.999999999999999 AA, multipole_radius_free =              5.043624274424571 AA.
  | Species        3: outer_partition_radius set to              5.043624274424571 AA .
  | Species        4: Confinement radius =              4.999999999999999 AA, multipole_radius_free =              5.048384829883283 AA.
  | Species        4: outer_partition_radius set to              5.048384829883283 AA .
  | Original list of interatomic distances with          13 x         13 entries is created.
  | Net number of integration points:    69646
  | of which are non-zero points    :    59496
  Renormalizing the initial density to the exact electron count on the 3D integration grid.
  | Initial density: Formal number of electrons (from input files) :      48.0000000000
  | Integrated number of electrons on 3D grid     :      47.9998077014
  | Charge integration error                      :      -0.0001922986
  | Normalization factor for density and gradient :       1.0000040062
  Obtaining max. number of non-zero basis functions in each batch (get_n_compute_maxes).
  | Maximal number of non-zero basis functions:      119 in task     0
  Selecting the method for density update.
  Loop over occupied states selected for charge density update.
  Allocating        0.050 MB for KS_eigenvector
  Integrating Hamiltonian matrix: batch-based integration.
  Time summed over all CPUs for integration: real work        0.501 s, elapsed        0.501 s
  Integrating overlap matrix.
  Time summed over all CPUs for integration: real work        0.214 s, elapsed        0.214 s

  Updating Kohn-Sham eigenvalues and eigenvectors using ELSI and the ELPA eigensolver.
  Overlap matrix is nonsingular
  | Lowest eigenvalue of overlap  :  0.30E-02
  | Highest eigenvalue of overlap :  0.64E+01
  Finished singularity check of overlap matrix
  | Time :     0.002 s
  Finished Cholesky decomposition
  | Time :     0.000 s
  Finished transformation to standard eigenproblem
  | Time :     0.000 s
  Starting LAPACK eigensolver
  Finished solving standard eigenproblem
  | Time :     0.002 s
  Finished back-transformation of eigenvectors
  | Time :     0.000 s

  Obtaining occupation numbers and chemical potential using ELSI.
  | Chemical potential (Fermi level):    -9.85030856eV
  Writing Kohn-Sham eigenvalues.

  State    Occupation    Eigenvalue [Ha]    Eigenvalue [eV]
      1       2.00000         -19.008278         -517.24157
      2       2.00000         -18.977125         -516.39385
      3       2.00000         -14.247252         -387.68746
      4       2.00000         -10.166598         -276.64722
      5       2.00000         -10.141935         -275.97609
      6       2.00000         -10.132134         -275.70938
      7       2.00000          -1.183688          -32.20980
      8       2.00000          -1.102958          -30.01301
      9       2.00000          -0.994369          -27.05814
     10       2.00000          -0.862939          -23.48177
     11       2.00000          -0.751256          -20.44272
     12       2.00000          -0.685885          -18.66387
     13       2.00000          -0.652560          -17.75707
     14       2.00000          -0.613005          -16.68071
     15       2.00000          -0.570391          -15.52113
     16       2.00000          -0.562325          -15.30163
     17       2.00000          -0.549998          -14.96621
     18       2.00000          -0.537967          -14.63883
     19       2.00000          -0.515337          -14.02302
     20       2.00000          -0.489083          -13.30862
     21       2.00000          -0.477910          -13.00459
     22       2.00000          -0.429725          -11.69342
     23       2.00000          -0.418682          -11.39292
     24       2.00000          -0.384064          -10.45091
     25       0.00000          -0.149815           -4.07669
     26       0.00000          -0.086057           -2.34174
     27       0.00000          -0.035962           -0.97857
     28       0.00000          -0.026561           -0.72276
     29       0.00000           0.002793            0.07600
     30       0.00000           0.019274            0.52447
     31       0.00000           0.022867            0.62224
     32       0.00000           0.029039            0.79020
     33       0.00000           0.060497            1.64620
     34       0.00000           0.070297            1.91288
     35       0.00000           0.113943            3.10054
     36       0.00000           0.141373            3.84695
     37       0.00000           0.179678            4.88929
     38       0.00000           0.207724            5.65246
     39       0.00000           0.213517            5.81009
     40       0.00000           0.218304            5.94034
     41       0.00000           0.243642            6.62983
     42       0.00000           0.266541            7.25294
     43       0.00000           0.298291            8.11692
     44       0.00000           0.309691            8.42711
     45       0.00000           0.328684            8.94394
     46       0.00000           0.351584            9.56708
     47       0.00000           0.368623           10.03074
     48       0.00000           0.381198           10.37293
     49       0.00000           0.425096           11.56744
     50       0.00000           0.448961           12.21686
     51       0.00000           0.517135           14.07195
     52       0.00000           0.547801           14.90643
     53       0.00000           0.555038           15.10336

  Highest occupied state (VBM) at    -10.45091231 eV
  | Occupation number:      2.00000000

  Lowest unoccupied state (CBM) at    -4.07668623 eV
  | Occupation number:      0.00000000

  Overall HOMO-LUMO gap:      6.37422608 eV.
  Calculating total energy contributions from superposition of free atom densities.

  Total energy components:
  | Sum of eigenvalues            :        -188.91092841 Ha       -5140.52790926 eV
  | XC energy correction          :         -41.81914341 Ha       -1137.95679079 eV
  | XC potential correction       :          53.76146150 Ha        1462.92380018 eV
  | Free-atom electrostatic energy:        -146.77556943 Ha       -3993.96645508 eV
  | Hartree energy correction     :           0.00000000 Ha           0.00000000 eV
  | vdW energy correction         :           0.00000000 Ha           0.00000000 eV
  | Entropy correction            :           0.00000000 Ha           0.00000000 eV
  | ---------------------------
  | Total energy                  :        -323.74417976 Ha       -8809.52735495 eV
  | Total energy, T -> 0          :        -323.74417976 Ha       -8809.52735495 eV  <-- do not rely on this value for anything but (periodic) metals
  | Electronic free energy        :        -323.74417976 Ha       -8809.52735495 eV

  Derived energy quantities:
  | Kinetic energy                :         320.57138081 Ha        8723.19110282 eV
  | Electrostatic energy          :        -602.49641715 Ha      -16394.76166698 eV
  | Energy correction for multipole
  | error in Hartree potential    :           0.00000000 Ha           0.00000000 eV
  | Sum of eigenvalues per atom                           :        -395.42522379 eV
  | Total energy (T->0) per atom                          :        -677.65595038 eV  <-- do not rely on this value for anything but (periodic) metals
  | Electronic free energy per atom                       :        -677.65595038 eV
  Initialize hartree_potential_storage
  Max. number of atoms included in rho_multipole:           13

  End scf initialization - timings             :  max(cpu_time)    wall_clock(cpu1)
  | Time for scf. initialization               :        1.161 s           1.163 s
  | Boundary condition initialization          :        0.000 s           0.000 s
  | Integration                                :        0.714 s           0.715 s
  | Solution of K.-S. eqns.                    :        0.004 s           0.004 s
  | Grid partitioning                          :        0.113 s           0.113 s
  | Preloading free-atom quantities on grid    :        0.002 s           0.002 s
  | Free-atom superposition energy             :        0.084 s           0.085 s
  | Total energy evaluation                    :        0.000 s           0.000 s

  Partial memory accounting:
  | Current value for overall tracked memory usage on task 0  :           0.165 MB
  | Peak value for overall tracked memory usage on task 0     :           0.678 MB after allocating wave
  | Largest tracked array allocation on task 0 so far         :           0.132 MB  when allocating H_times_psi
  Note:  These values currently only include a subset of arrays which are explicitly tracked.
  The "true" memory usage will be greater.
------------------------------------------------------------

------------------------------------------------------------
          Begin self-consistency iteration #    1

  Date     :  20200710, Time     :  150650.884
------------------------------------------------------------
  Evaluating new KS density.
  Integration grid: deviation in total charge (<rho> - N_e) =   0.000000E+00
  Pulay mixing of updated and previous charge densities.

  Evaluating partitioned Hartree potential by multipole expansion.
  | Analytical far-field extrapolation by fixed multipoles:
  | Hartree multipole sum: apparent total charge =  -0.296845E-03
  Summing up the Hartree potential.
  Time summed over all CPUs for potential: real work        0.281 s, elapsed        0.281 s
  | RMS charge density error from multipole expansion :   0.595212E-02

  Integrating Hamiltonian matrix: batch-based integration.
  Time summed over all CPUs for integration: real work        0.499 s, elapsed        0.499 s

  Updating Kohn-Sham eigenvalues and eigenvectors using ELSI and the ELPA eigensolver.
  Finished Cholesky decomposition
  | Time :     0.000 s
  Finished transformation to standard eigenproblem
  | Time :     0.000 s
  Starting LAPACK eigensolver
  Finished solving standard eigenproblem
  | Time :     0.001 s
  Finished back-transformation of eigenvectors
  | Time :     0.000 s

  Obtaining occupation numbers and chemical potential using ELSI.
  | Chemical potential (Fermi level):    -4.69302401eV
  Writing Kohn-Sham eigenvalues.

  State    Occupation    Eigenvalue [Ha]    Eigenvalue [eV]
      1       2.00000         -18.913160         -514.65327
      2       2.00000         -18.830596         -512.40659
      3       2.00000         -14.113250         -384.04108
      4       2.00000         -10.115737         -275.26321
      5       2.00000         -10.068730         -273.98408
      6       2.00000         -10.030227         -272.93635
      7       2.00000          -1.138427          -30.97817
      8       2.00000          -1.038233          -28.25175
      9       2.00000          -0.935010          -25.44291
     10       2.00000          -0.800334          -21.77819
     11       2.00000          -0.700634          -19.06521
     12       2.00000          -0.646072          -17.58051
     13       2.00000          -0.605659          -16.48081
     14       2.00000          -0.556495          -15.14300
     15       2.00000          -0.513253          -13.96632
     16       2.00000          -0.507576          -13.81185
     17       2.00000          -0.490443          -13.34564
     18       2.00000          -0.481018          -13.08917
     19       2.00000          -0.452078          -12.30166
     20       2.00000          -0.436441          -11.87616
     21       2.00000          -0.424146          -11.54159
     22       2.00000          -0.368233          -10.02013
     23       2.00000          -0.350849           -9.54708
     24       2.00000          -0.313180           -8.52205
     25       0.00000          -0.112834           -3.07038
     26       0.00000          -0.066624           -1.81293
     27       0.00000          -0.008923           -0.24282
     28       0.00000           0.011402            0.31028
     29       0.00000           0.040148            1.09247
     30       0.00000           0.055700            1.51568
     31       0.00000           0.059504            1.61917
     32       0.00000           0.067389            1.83374
     33       0.00000           0.096575            2.62795
     34       0.00000           0.108800            2.96060
     35       0.00000           0.139686            3.80106
     36       0.00000           0.166781            4.53834
     37       0.00000           0.200404            5.45326
     38       0.00000           0.238096            6.47892
     39       0.00000           0.241857            6.58127
     40       0.00000           0.249209            6.78132
     41       0.00000           0.274160            7.46027
     42       0.00000           0.300890            8.18763
     43       0.00000           0.336681            9.16156
     44       0.00000           0.345074            9.38995
     45       0.00000           0.359978            9.79549
     46       0.00000           0.389966           10.61153
     47       0.00000           0.402572           10.95453
     48       0.00000           0.419299           11.40970
     49       0.00000           0.457640           12.45303
     50       0.00000           0.483588           13.15911
     51       0.00000           0.550592           14.98236
     52       0.00000           0.576608           15.69030
     53       0.00000           0.589351           16.03707

  Highest occupied state (VBM) at     -8.52205264 eV
  | Occupation number:      2.00000000

  Lowest unoccupied state (CBM) at    -3.07037699 eV
  | Occupation number:      0.00000000

  Overall HOMO-LUMO gap:      5.45167565 eV.

  Total energy components:
  | Sum of eigenvalues            :        -185.65955763 Ha       -5052.05360878 eV
  | XC energy correction          :         -42.13889288 Ha       -1146.65761667 eV
  | XC potential correction       :          54.17717094 Ha        1474.23582960 eV
  | Free-atom electrostatic energy:        -146.77556943 Ha       -3993.96645508 eV
  | Hartree energy correction     :          -3.17131762 Ha         -86.29594301 eV
  | vdW energy correction         :           0.00000000 Ha           0.00000000 eV
  | Entropy correction            :           0.00000000 Ha           0.00000000 eV
  | ---------------------------
  | Total energy                  :        -323.56816662 Ha       -8804.73779394 eV
  | Total energy, T -> 0          :        -323.56816662 Ha       -8804.73779394 eV  <-- do not rely on this value for anything but (periodic) metals
  | Electronic free energy        :        -323.56816662 Ha       -8804.73779394 eV

  Derived energy quantities:
  | Kinetic energy                :         322.31946707 Ha        8770.75895041 eV
  | Electrostatic energy          :        -603.74874081 Ha      -16428.83912767 eV
  | Energy correction for multipole
  | error in Hartree potential    :           0.01242781 Ha           0.33817785 eV
  | Sum of eigenvalues per atom                           :        -388.61950837 eV
  | Total energy (T->0) per atom                          :        -677.28752261 eV  <-- do not rely on this value for anything but (periodic) metals
  | Electronic free energy per atom                       :        -677.28752261 eV

  Self-consistency convergence accuracy:
  | Change of charge density      :  0.5750E+00
  | Change of sum of eigenvalues  :  0.8847E+02 eV
  | Change of total energy        :  0.4790E+01 eV

  End self-consistency iteration #     1       :  max(cpu_time)    wall_clock(cpu1)
  | Time for this iteration                    :        1.197 s           1.198 s
  | Charge density update                      :        0.399 s           0.400 s
  | Density mixing                             :        0.005 s           0.005 s
  | Hartree multipole update                   :        0.009 s           0.009 s
  | Hartree multipole summation                :        0.282 s           0.282 s
  | Integration                                :        0.499 s           0.499 s
  | Solution of K.-S. eqns.                    :        0.002 s           0.003 s
  | Total energy evaluation                    :        0.000 s           0.000 s

  Partial memory accounting:
  | Current value for overall tracked memory usage on task 0  :           0.165 MB
  | Peak value for overall tracked memory usage on task 0     :           0.695 MB after allocating gradient_basis_wave
  | Largest tracked array allocation on task 0 so far         :           0.397 MB  when allocating gradient_basis_wave
  Note:  These values currently only include a subset of arrays which are explicitly tracked.
  The "true" memory usage will be greater.
------------------------------------------------------------

------------------------------------------------------------
          Begin self-consistency iteration #    2

  Date     :  20200710, Time     :  150652.084
------------------------------------------------------------
  Evaluating new KS density.
  Integration grid: deviation in total charge (<rho> - N_e) =  -7.105427E-15
  Pulay mixing of updated and previous charge densities.

  Evaluating partitioned Hartree potential by multipole expansion.
  | Analytical far-field extrapolation by fixed multipoles:
  | Hartree multipole sum: apparent total charge =  -0.429944E-03
  Summing up the Hartree potential.
  Time summed over all CPUs for potential: real work        0.281 s, elapsed        0.281 s
  | RMS charge density error from multipole expansion :   0.141299E-01

  Integrating Hamiltonian matrix: batch-based integration.
  Time summed over all CPUs for integration: real work        0.499 s, elapsed        0.499 s

  Updating Kohn-Sham eigenvalues and eigenvectors using ELSI and the ELPA eigensolver.
  Finished Cholesky decomposition
  | Time :     0.000 s
  Finished transformation to standard eigenproblem
  | Time :     0.000 s
  Starting LAPACK eigensolver
  Finished solving standard eigenproblem
  | Time :     0.001 s
  Finished back-transformation of eigenvectors
  | Time :     0.000 s

  Obtaining occupation numbers and chemical potential using ELSI.
  | Chemical potential (Fermi level):    -3.55764808eV
  Highest occupied state (VBM) at     -6.65215039 eV
  | Occupation number:      2.00000000

  Lowest unoccupied state (CBM) at    -1.78506625 eV
  | Occupation number:      0.00000000

  Overall HOMO-LUMO gap:      4.86708414 eV.

  Checking to see if s.c.f. parameters should be adjusted.

  Total energy components:
  | Sum of eigenvalues            :        -182.23284393 Ha       -4958.80798463 eV
  | XC energy correction          :         -42.48893873 Ha       -1156.18284871 eV
  | XC potential correction       :          54.63065103 Ha        1486.57565068 eV
  | Free-atom electrostatic energy:        -146.77556943 Ha       -3993.96645508 eV
  | Hartree energy correction     :          -6.62582938 Ha        -180.29799084 eV
  | vdW energy correction         :           0.00000000 Ha           0.00000000 eV
  | Entropy correction            :           0.00000000 Ha           0.00000000 eV
  | ---------------------------
  | Total energy                  :        -323.49253044 Ha       -8802.67962859 eV
  | Total energy, T -> 0          :        -323.49253044 Ha       -8802.67962859 eV  <-- do not rely on this value for anything but (periodic) metals
  | Electronic free energy        :        -323.49253044 Ha       -8802.67962859 eV

  Derived energy quantities:
  | Kinetic energy                :         323.61507589 Ha        8806.01425994 eV
  | Electrostatic energy          :        -604.61866760 Ha      -16452.51103981 eV
  | Energy correction for multipole
  | error in Hartree potential    :           0.02740490 Ha           0.74572519 eV
  | Sum of eigenvalues per atom                           :        -381.44676805 eV
  | Total energy (T->0) per atom                          :        -677.12920220 eV  <-- do not rely on this value for anything but (periodic) metals
  | Electronic free energy per atom                       :        -677.12920220 eV

  Self-consistency convergence accuracy:
  | Change of charge density      :  0.3607E+00
  | Change of sum of eigenvalues  :  0.9325E+02 eV
  | Change of total energy        :  0.2058E+01 eV

  End self-consistency iteration #     2       :  max(cpu_time)    wall_clock(cpu1)
  | Time for this iteration                    :        1.190 s           1.191 s
  | Charge density update                      :        0.392 s           0.392 s
  | Density mixing                             :        0.007 s           0.007 s
  | Hartree multipole update                   :        0.009 s           0.008 s
  | Hartree multipole summation                :        0.281 s           0.282 s
  | Integration                                :        0.499 s           0.499 s
  | Solution of K.-S. eqns.                    :        0.002 s           0.002 s
  | Total energy evaluation                    :        0.000 s           0.000 s

  Partial memory accounting:
  | Current value for overall tracked memory usage on task 0  :           0.166 MB
  | Peak value for overall tracked memory usage on task 0     :           0.695 MB after allocating gradient_basis_wave
  | Largest tracked array allocation on task 0 so far         :           0.397 MB  when allocating gradient_basis_wave
  Note:  These values currently only include a subset of arrays which are explicitly tracked.
  The "true" memory usage will be greater.
------------------------------------------------------------

------------------------------------------------------------
          Begin self-consistency iteration #    3

  Date     :  20200710, Time     :  150653.277
------------------------------------------------------------
  Evaluating new KS density.
  Integration grid: deviation in total charge (<rho> - N_e) =   5.684342E-14
  Pulay mixing of updated and previous charge densities.

  Evaluating partitioned Hartree potential by multipole expansion.
  | Analytical far-field extrapolation by fixed multipoles:
  | Hartree multipole sum: apparent total charge =  -0.526880E-03
  Summing up the Hartree potential.
  Time summed over all CPUs for potential: real work        0.281 s, elapsed        0.281 s
  | RMS charge density error from multipole expansion :   0.223663E-01

  Integrating Hamiltonian matrix: batch-based integration.
  Time summed over all CPUs for integration: real work        0.500 s, elapsed        0.500 s

  Updating Kohn-Sham eigenvalues and eigenvectors using ELSI and the ELPA eigensolver.
  Finished Cholesky decomposition
  | Time :     0.000 s
  Finished transformation to standard eigenproblem
  | Time :     0.000 s
  Starting LAPACK eigensolver
  Finished solving standard eigenproblem
  | Time :     0.001 s
  Finished back-transformation of eigenvectors
  | Time :     0.000 s

  Obtaining occupation numbers and chemical potential using ELSI.
  | Chemical potential (Fermi level):    -2.94145940eV
  Highest occupied state (VBM) at     -6.01584216 eV
  | Occupation number:      2.00000000

  Lowest unoccupied state (CBM) at    -1.05563279 eV
  | Occupation number:      0.00000000

  Overall HOMO-LUMO gap:      4.96020937 eV.

  Total energy components:
  | Sum of eigenvalues            :        -180.86335188 Ha       -4921.54220998 eV
  | XC energy correction          :         -42.64815466 Ha       -1160.51533467 eV
  | XC potential correction       :          54.83366997 Ha        1492.10007715 eV
  | Free-atom electrostatic energy:        -146.77556943 Ha       -3993.96645508 eV
  | Hartree energy correction     :          -8.02681396 Ha        -218.42072090 eV
  | vdW energy correction         :           0.00000000 Ha           0.00000000 eV
  | Entropy correction            :           0.00000000 Ha           0.00000000 eV
  | ---------------------------
  | Total energy                  :        -323.48021996 Ha       -8802.34464349 eV
  | Total energy, T -> 0          :        -323.48021996 Ha       -8802.34464349 eV  <-- do not rely on this value for anything but (periodic) metals
  | Electronic free energy        :        -323.48021996 Ha       -8802.34464349 eV

  Derived energy quantities:
  | Kinetic energy                :         323.28449685 Ha        8797.01874676 eV
  | Electrostatic energy          :        -604.11656215 Ha      -16438.84805558 eV
  | Energy correction for multipole
  | error in Hartree potential    :           0.03908314 Ha           1.06350643 eV
  | Sum of eigenvalues per atom                           :        -378.58017000 eV
  | Total energy (T->0) per atom                          :        -677.10343411 eV  <-- do not rely on this value for anything but (periodic) metals
  | Electronic free energy per atom                       :        -677.10343411 eV

  Self-consistency convergence accuracy:
  | Change of charge density      :  0.2028E+00
  | Change of sum of eigenvalues  :  0.3727E+02 eV
  | Change of total energy        :  0.3350E+00 eV

  End self-consistency iteration #     3       :  max(cpu_time)    wall_clock(cpu1)
  | Time for this iteration                    :        1.193 s           1.193 s
  | Charge density update                      :        0.391 s           0.391 s
  | Density mixing                             :        0.008 s           0.008 s
  | Hartree multipole update                   :        0.009 s           0.008 s
  | Hartree multipole summation                :        0.281 s           0.281 s
  | Integration                                :        0.500 s           0.500 s
  | Solution of K.-S. eqns.                    :        0.002 s           0.002 s
  | Total energy evaluation                    :        0.000 s           0.000 s

  Partial memory accounting:
  | Current value for overall tracked memory usage on task 0  :           0.166 MB
  | Peak value for overall tracked memory usage on task 0     :           0.695 MB after allocating gradient_basis_wave
  | Largest tracked array allocation on task 0 so far         :           0.397 MB  when allocating gradient_basis_wave
  Note:  These values currently only include a subset of arrays which are explicitly tracked.
  The "true" memory usage will be greater.
------------------------------------------------------------

------------------------------------------------------------
          Begin self-consistency iteration #    4

  Date     :  20200710, Time     :  150654.471
------------------------------------------------------------
  Evaluating new KS density.
  Integration grid: deviation in total charge (<rho> - N_e) =   4.263256E-14
  Pulay mixing of updated and previous charge densities.

  Evaluating partitioned Hartree potential by multipole expansion.
  | Analytical far-field extrapolation by fixed multipoles:
  | Hartree multipole sum: apparent total charge =  -0.557853E-03
  Summing up the Hartree potential.
  Time summed over all CPUs for potential: real work        0.281 s, elapsed        0.281 s
  | RMS charge density error from multipole expansion :   0.259220E-01

  Integrating Hamiltonian matrix: batch-based integration.
  Time summed over all CPUs for integration: real work        0.500 s, elapsed        0.500 s

  Updating Kohn-Sham eigenvalues and eigenvectors using ELSI and the ELPA eigensolver.
  Finished Cholesky decomposition
  | Time :     0.000 s
  Finished transformation to standard eigenproblem
  | Time :     0.000 s
  Starting LAPACK eigensolver
  Finished solving standard eigenproblem
  | Time :     0.002 s
  Finished back-transformation of eigenvectors
  | Time :     0.000 s

  Obtaining occupation numbers and chemical potential using ELSI.
  | Chemical potential (Fermi level):    -2.87420223eV
  Highest occupied state (VBM) at     -5.77220561 eV
  | Occupation number:      2.00000000

  Lowest unoccupied state (CBM) at    -0.99389035 eV
  | Occupation number:      0.00000000

  Overall HOMO-LUMO gap:      4.77831526 eV.

  Total energy components:
  | Sum of eigenvalues            :        -180.79636827 Ha       -4919.71949333 eV
  | XC energy correction          :         -42.68118495 Ha       -1161.41413463 eV
  | XC potential correction       :          54.87480151 Ha        1493.21932338 eV
  | Free-atom electrostatic energy:        -146.77556943 Ha       -3993.96645508 eV
  | Hartree energy correction     :          -8.10090951 Ha        -220.43696355 eV
  | vdW energy correction         :           0.00000000 Ha           0.00000000 eV
  | Entropy correction            :           0.00000000 Ha           0.00000000 eV
  | ---------------------------
  | Total energy                  :        -323.47923066 Ha       -8802.31772322 eV
  | Total energy, T -> 0          :        -323.47923066 Ha       -8802.31772322 eV  <-- do not rely on this value for anything but (periodic) metals
  | Electronic free energy        :        -323.47923066 Ha       -8802.31772322 eV

  Derived energy quantities:
  | Kinetic energy                :         322.86477624 Ha        8785.59756766 eV
  | Electrostatic energy          :        -603.66282194 Ha      -16426.50115625 eV
  | Energy correction for multipole
  | error in Hartree potential    :           0.04346956 Ha           1.18286680 eV
  | Sum of eigenvalues per atom                           :        -378.43996103 eV
  | Total energy (T->0) per atom                          :        -677.10136332 eV  <-- do not rely on this value for anything but (periodic) metals
  | Electronic free energy per atom                       :        -677.10136332 eV

  Self-consistency convergence accuracy:
  | Change of charge density      :  0.6725E-01
  | Change of sum of eigenvalues  :  0.1823E+01 eV
  | Change of total energy        :  0.2692E-01 eV

  End self-consistency iteration #     4       :  max(cpu_time)    wall_clock(cpu1)
  | Time for this iteration                    :        1.193 s           1.193 s
  | Charge density update                      :        0.390 s           0.391 s
  | Density mixing                             :        0.010 s           0.009 s
  | Hartree multipole update                   :        0.009 s           0.009 s
  | Hartree multipole summation                :        0.282 s           0.282 s
  | Integration                                :        0.500 s           0.500 s
  | Solution of K.-S. eqns.                    :        0.002 s           0.002 s
  | Total energy evaluation                    :        0.000 s           0.000 s

  Partial memory accounting:
  | Current value for overall tracked memory usage on task 0  :           0.166 MB
  | Peak value for overall tracked memory usage on task 0     :           0.696 MB after allocating gradient_basis_wave
  | Largest tracked array allocation on task 0 so far         :           0.397 MB  when allocating gradient_basis_wave
  Note:  These values currently only include a subset of arrays which are explicitly tracked.
  The "true" memory usage will be greater.
------------------------------------------------------------

------------------------------------------------------------
          Begin self-consistency iteration #    5

  Date     :  20200710, Time     :  150655.665
------------------------------------------------------------
  Evaluating new KS density.
  Integration grid: deviation in total charge (<rho> - N_e) =  -1.421085E-14
  Pulay mixing of updated and previous charge densities.

  Evaluating partitioned Hartree potential by multipole expansion.
  | Analytical far-field extrapolation by fixed multipoles:
  | Hartree multipole sum: apparent total charge =  -0.553260E-03
  Summing up the Hartree potential.
  Time summed over all CPUs for potential: real work        0.281 s, elapsed        0.281 s
  | RMS charge density error from multipole expansion :   0.256595E-01

  Integrating Hamiltonian matrix: batch-based integration.
  Time summed over all CPUs for integration: real work        0.502 s, elapsed        0.502 s

  Updating Kohn-Sham eigenvalues and eigenvectors using ELSI and the ELPA eigensolver.
  Finished Cholesky decomposition
  | Time :     0.000 s
  Finished transformation to standard eigenproblem
  | Time :     0.000 s
  Starting LAPACK eigensolver
  Finished solving standard eigenproblem
  | Time :     0.001 s
  Finished back-transformation of eigenvectors
  | Time :     0.000 s

  Obtaining occupation numbers and chemical potential using ELSI.
  | Chemical potential (Fermi level):    -2.90867808eV
  Highest occupied state (VBM) at     -5.88068121 eV
  | Occupation number:      2.00000000

  Lowest unoccupied state (CBM) at    -1.04808807 eV
  | Occupation number:      0.00000000

  Overall HOMO-LUMO gap:      4.83259314 eV.

  Total energy components:
  | Sum of eigenvalues            :        -180.91706252 Ha       -4923.00375094 eV
  | XC energy correction          :         -42.66439464 Ha       -1160.95724704 eV
  | XC potential correction       :          54.85306725 Ha        1492.62790394 eV
  | Free-atom electrostatic energy:        -146.77556943 Ha       -3993.96645508 eV
  | Hartree energy correction     :          -7.97495539 Ha        -217.00957737 eV
  | vdW energy correction         :           0.00000000 Ha           0.00000000 eV
  | Entropy correction            :           0.00000000 Ha           0.00000000 eV
  | ---------------------------
  | Total energy                  :        -323.47891473 Ha       -8802.30912649 eV
  | Total energy, T -> 0          :        -323.47891473 Ha       -8802.30912649 eV  <-- do not rely on this value for anything but (periodic) metals
  | Electronic free energy        :        -323.47891473 Ha       -8802.30912649 eV

  Derived energy quantities:
  | Kinetic energy                :         322.80122129 Ha        8783.86814950 eV
  | Electrostatic energy          :        -603.61574138 Ha      -16425.22002895 eV
  | Energy correction for multipole
  | error in Hartree potential    :           0.04288674 Ha           1.16700765 eV
  | Sum of eigenvalues per atom                           :        -378.69259623 eV
  | Total energy (T->0) per atom                          :        -677.10070204 eV  <-- do not rely on this value for anything but (periodic) metals
  | Electronic free energy per atom                       :        -677.10070204 eV

  Self-consistency convergence accuracy:
  | Change of charge density      :  0.2362E-01
  | Change of sum of eigenvalues  : -0.3284E+01 eV
  | Change of total energy        :  0.8597E-02 eV

  End self-consistency iteration #     5       :  max(cpu_time)    wall_clock(cpu1)
  | Time for this iteration                    :        1.195 s           1.196 s
  | Charge density update                      :        0.390 s           0.390 s
  | Density mixing                             :        0.011 s           0.012 s
  | Hartree multipole update                   :        0.009 s           0.009 s
  | Hartree multipole summation                :        0.281 s           0.281 s
  | Integration                                :        0.501 s           0.502 s
  | Solution of K.-S. eqns.                    :        0.002 s           0.002 s
  | Total energy evaluation                    :        0.000 s           0.000 s

  Partial memory accounting:
  | Current value for overall tracked memory usage on task 0  :           0.166 MB
  | Peak value for overall tracked memory usage on task 0     :           0.696 MB after allocating gradient_basis_wave
  | Largest tracked array allocation on task 0 so far         :           0.397 MB  when allocating gradient_basis_wave
  Note:  These values currently only include a subset of arrays which are explicitly tracked.
  The "true" memory usage will be greater.
------------------------------------------------------------

------------------------------------------------------------
          Begin self-consistency iteration #    6

  Date     :  20200710, Time     :  150656.862
------------------------------------------------------------
  Evaluating new KS density.
  Integration grid: deviation in total charge (<rho> - N_e) =  -3.552714E-14
  Pulay mixing of updated and previous charge densities.

  Evaluating partitioned Hartree potential by multipole expansion.
  | Analytical far-field extrapolation by fixed multipoles:
  | Hartree multipole sum: apparent total charge =  -0.554463E-03
  Summing up the Hartree potential.
  Time summed over all CPUs for potential: real work        0.281 s, elapsed        0.281 s
  | RMS charge density error from multipole expansion :   0.259567E-01

  Integrating Hamiltonian matrix: batch-based integration.
  Time summed over all CPUs for integration: real work        0.499 s, elapsed        0.499 s

  Updating Kohn-Sham eigenvalues and eigenvectors using ELSI and the ELPA eigensolver.
  Finished Cholesky decomposition
  | Time :     0.000 s
  Finished transformation to standard eigenproblem
  | Time :     0.000 s
  Starting LAPACK eigensolver
  Finished solving standard eigenproblem
  | Time :     0.002 s
  Finished back-transformation of eigenvectors
  | Time :     0.000 s

  Obtaining occupation numbers and chemical potential using ELSI.
  | Chemical potential (Fermi level):    -2.92709809eV
  Highest occupied state (VBM) at     -5.90466907 eV
  | Occupation number:      2.00000000

  Lowest unoccupied state (CBM) at    -1.08964228 eV
  | Occupation number:      0.00000000

  Overall HOMO-LUMO gap:      4.81502679 eV.

  Total energy components:
  | Sum of eigenvalues            :        -180.98086194 Ha       -4924.73982135 eV
  | XC energy correction          :         -42.65603857 Ha       -1160.72986672 eV
  | XC potential correction       :          54.84220268 Ha        1492.33226385 eV
  | Free-atom electrostatic energy:        -146.77556943 Ha       -3993.96645508 eV
  | Hartree energy correction     :          -7.90856538 Ha        -215.20301352 eV
  | vdW energy correction         :           0.00000000 Ha           0.00000000 eV
  | Entropy correction            :           0.00000000 Ha           0.00000000 eV
  | ---------------------------
  | Total energy                  :        -323.47883265 Ha       -8802.30689283 eV
  | Total energy, T -> 0          :        -323.47883265 Ha       -8802.30689283 eV  <-- do not rely on this value for anything but (periodic) metals
  | Electronic free energy        :        -323.47883265 Ha       -8802.30689283 eV

  Derived energy quantities:
  | Kinetic energy                :         322.69841960 Ha        8781.07077318 eV
  | Electrostatic energy          :        -603.52121368 Ha      -16422.64779928 eV
  | Energy correction for multipole
  | error in Hartree potential    :           0.04297350 Ha           1.16936856 eV
  | Sum of eigenvalues per atom                           :        -378.82614010 eV
  | Total energy (T->0) per atom                          :        -677.10053022 eV  <-- do not rely on this value for anything but (periodic) metals
  | Electronic free energy per atom                       :        -677.10053022 eV

  Self-consistency convergence accuracy:
  | Change of charge density      :  0.1119E-01
  | Change of sum of eigenvalues  : -0.1736E+01 eV
  | Change of total energy        :  0.2234E-02 eV

  End self-consistency iteration #     6       :  max(cpu_time)    wall_clock(cpu1)
  | Time for this iteration                    :        1.195 s           1.202 s
  | Charge density update                      :        0.391 s           0.397 s
  | Density mixing                             :        0.012 s           0.013 s
  | Hartree multipole update                   :        0.009 s           0.009 s
  | Hartree multipole summation                :        0.282 s           0.281 s
  | Integration                                :        0.500 s           0.500 s
  | Solution of K.-S. eqns.                    :        0.002 s           0.002 s
  | Total energy evaluation                    :        0.000 s           0.000 s

  Partial memory accounting:
  | Current value for overall tracked memory usage on task 0  :           0.166 MB
  | Peak value for overall tracked memory usage on task 0     :           0.696 MB after allocating gradient_basis_wave
  | Largest tracked array allocation on task 0 so far         :           0.397 MB  when allocating gradient_basis_wave
  Note:  These values currently only include a subset of arrays which are explicitly tracked.
  The "true" memory usage will be greater.
------------------------------------------------------------

------------------------------------------------------------
          Begin self-consistency iteration #    7

  Date     :  20200710, Time     :  150658.065
------------------------------------------------------------
  Evaluating new KS density.
  Integration grid: deviation in total charge (<rho> - N_e) =   0.000000E+00
  Pulay mixing of updated and previous charge densities.

  Evaluating partitioned Hartree potential by multipole expansion.
  | Analytical far-field extrapolation by fixed multipoles:
  | Hartree multipole sum: apparent total charge =  -0.555865E-03
  Summing up the Hartree potential.
  Time summed over all CPUs for potential: real work        0.281 s, elapsed        0.281 s
  | RMS charge density error from multipole expansion :   0.261098E-01

  Integrating Hamiltonian matrix: batch-based integration.
  Time summed over all CPUs for integration: real work        0.501 s, elapsed        0.501 s

  Updating Kohn-Sham eigenvalues and eigenvectors using ELSI and the ELPA eigensolver.
  Finished Cholesky decomposition
  | Time :     0.000 s
  Finished transformation to standard eigenproblem
  | Time :     0.000 s
  Starting LAPACK eigensolver
  Finished solving standard eigenproblem
  | Time :     0.002 s
  Finished back-transformation of eigenvectors
  | Time :     0.000 s

[...]
  |   Hirshfeld dipole moment :      0.06092884
  |   Hirshfeld second moments:     -0.00035321      -0.02641278      -0.01634128
  |                                 -0.02641278      -0.02408415       0.00893235
  |                                 -0.01634128       0.00893235      -0.01849956
  ----------------------------------------------------------------------
  | Atom    12: O
  |   Hirshfeld charge        :     -0.14002660
  |   Free atom volume        :     23.61338643
  |   Hirshfeld volume        :     21.06346287
  |   Hirshfeld dipole vector :      0.01227215       0.03870865      -0.00552481
  |   Hirshfeld dipole moment :      0.04098156
  |   Hirshfeld second moments:      0.06959047      -0.01702703       0.02164593
  |                                 -0.01702703       0.03253187       0.00363373
  |                                  0.02164593       0.00363373       0.06429731
  ----------------------------------------------------------------------
  | Atom    13: H
  |   Hirshfeld charge        :      0.13162077
  |   Free atom volume        :      9.95071624
  |   Hirshfeld volume        :      6.74200343
  |   Hirshfeld dipole vector :     -0.06460305       0.02936210      -0.05198844
  |   Hirshfeld dipole moment :      0.08796866
  |   Hirshfeld second moments:      0.11231432      -0.01209993       0.00777804
  |                                 -0.01209993       0.07648488       0.02895719
  |                                  0.00777804       0.02895719       0.09365295
  ----------------------------------------------------------------------


  Total energy components:
  | Sum of eigenvalues            :        -180.96888786 Ha       -4924.41398998 eV
  | XC energy correction          :         -42.65455327 Ha       -1160.68944977 eV
  | XC potential correction       :          54.84034289 Ha        1492.28165655 eV
  | Free-atom electrostatic energy:        -146.77556943 Ha       -3993.96645508 eV
  | Hartree energy correction     :          -7.92014648 Ha        -215.51815114 eV
  | vdW energy correction         :          -0.00336849 Ha          -0.09166131 eV
  | Entropy correction            :           0.00000000 Ha           0.00000000 eV
  | ---------------------------
  | Total energy                  :        -323.48218264 Ha       -8802.39805073 eV
  | Total energy, T -> 0          :        -323.48218264 Ha       -8802.39805073 eV  <-- do not rely on this value for anything but (periodic) metals
  | Electronic free energy        :        -323.48218264 Ha       -8802.39805073 eV

  Derived energy quantities:
  | Kinetic energy                :         322.66407159 Ha        8780.13611642 eV
  | Electrostatic energy          :        -603.48833247 Ha      -16421.75305608 eV
  | Energy correction for multipole
  | error in Hartree potential    :           0.04306798 Ha           1.17193930 eV
  | Sum of eigenvalues per atom                           :        -378.80107615 eV
  | Total energy (T->0) per atom                          :        -677.10754236 eV  <-- do not rely on this value for anything but (periodic) metals
  | Electronic free energy per atom                       :        -677.10754236 eV

  atomic forces [eV/Ang]:
  -----------------------
  atom #    1
   Hellmann-Feynman              :  0.161283E+00  0.145046E+00  0.143266E+01
   Ionic forces                  :  0.000000E+00  0.000000E+00  0.000000E+00
   Multipole                     :  0.111933E+00  0.103638E+00 -0.143629E+00
   Pulay + GGA                   : -0.696265E+00  0.119008E+00 -0.154481E+01
   Van der Waals                 :  0.221633E-02  0.132367E-02 -0.114077E-02
   ----------------------------------------------------------------
   Total forces(   1)            : -0.420833E+00  0.369015E+00 -0.256920E+00
  atom #    2
   Hellmann-Feynman              :  0.196866E+00  0.240256E-02 -0.100516E+00
   Ionic forces                  :  0.000000E+00  0.000000E+00  0.000000E+00
   Multipole                     :  0.193089E+00  0.106873E-01  0.181689E-01
   Pulay + GGA                   : -0.140687E+00  0.147955E-01  0.610692E-01
   Van der Waals                 :  0.222857E-02 -0.546968E-02 -0.708610E-02
   ----------------------------------------------------------------
   Total forces(   2)            :  0.251497E+00  0.224157E-01 -0.283643E-01
  atom #    3
   Hellmann-Feynman              : -0.286537E+01  0.114108E+02 -0.164974E+01
   Ionic forces                  :  0.000000E+00  0.000000E+00  0.000000E+00
   Multipole                     : -0.158598E+00  0.211806E+00 -0.754017E+00
   Pulay + GGA                   :  0.365679E+01 -0.108206E+02  0.295760E+01
   Van der Waals                 :  0.368123E-02 -0.512506E-02 -0.864117E-02
   ----------------------------------------------------------------
   Total forces(   3)            :  0.636509E+00  0.796954E+00  0.545207E+00
  atom #    4
   Hellmann-Feynman              : -0.181843E+00 -0.447902E+00 -0.192706E+00
   Ionic forces                  :  0.000000E+00  0.000000E+00  0.000000E+00
   Multipole                     :  0.403568E-01 -0.377958E-01 -0.108493E+00
   Pulay + GGA                   : -0.152002E+00  0.151303E+00  0.107721E+00
   Van der Waals                 :  0.338545E-03  0.479718E-02 -0.252459E-04
   ----------------------------------------------------------------
   Total forces(   4)            : -0.293150E+00 -0.329598E+00 -0.193502E+00
  atom #    5
   Hellmann-Feynman              : -0.103790E+00  0.260103E+00 -0.942216E+00
   Ionic forces                  :  0.000000E+00  0.000000E+00  0.000000E+00
   Multipole                     : -0.105080E+00 -0.393865E-02 -0.171528E+00
   Pulay + GGA                   :  0.178098E+00  0.293396E+00 -0.876274E-01
   Van der Waals                 :  0.200114E-03  0.228289E-02  0.742507E-03
   ----------------------------------------------------------------
   Total forces(   5)            : -0.305716E-01  0.551844E+00 -0.120063E+01
  atom #    6
   Hellmann-Feynman              :  0.149504E+00 -0.319970E+00  0.439162E+00
   Ionic forces                  :  0.000000E+00  0.000000E+00  0.000000E+00
   Multipole                     : -0.115271E+00  0.637315E+00  0.245951E+00
   Pulay + GGA                   :  0.133346E+00 -0.640960E+00 -0.566651E+00
   Van der Waals                 : -0.195037E-02  0.569576E-02 -0.461631E-02
   ----------------------------------------------------------------
   Total forces(   6)            :  0.165629E+00 -0.317919E+00  0.113846E+00
  atom #    7
   Hellmann-Feynman              : -0.221869E+00 -0.451582E-01 -0.408105E-01
   Ionic forces                  :  0.000000E+00  0.000000E+00  0.000000E+00
   Multipole                     : -0.117900E+00  0.506250E-01  0.237324E-01
   Pulay + GGA                   :  0.118432E+00  0.282445E-01  0.786896E-02
   Van der Waals                 : -0.159094E-02 -0.137637E-02  0.147917E-02
   ----------------------------------------------------------------
   Total forces(   7)            : -0.222928E+00  0.323350E-01 -0.772994E-02
  atom #    8
   Hellmann-Feynman              :  0.520116E-01 -0.749282E-01  0.152390E+00
   Ionic forces                  :  0.000000E+00  0.000000E+00  0.000000E+00
   Multipole                     :  0.168374E-01  0.673189E-01  0.125736E+00
   Pulay + GGA                   : -0.448318E-01 -0.397636E-01 -0.890084E-01
   Van der Waals                 : -0.288315E-02  0.111874E-01  0.140776E-02
   ----------------------------------------------------------------
   Total forces(   8)            :  0.211340E-01 -0.361856E-01  0.190526E+00
  atom #    9
   Hellmann-Feynman              :  0.840671E-01  0.828096E-02 -0.180509E+00
   Ionic forces                  :  0.000000E+00  0.000000E+00  0.000000E+00
   Multipole                     :  0.152489E-01  0.131401E+00 -0.110404E-01
   Pulay + GGA                   : -0.576437E-01 -0.950679E-01  0.302329E-01
   Van der Waals                 : -0.235762E-02  0.213889E-02  0.337938E-02
   ----------------------------------------------------------------
   Total forces(   9)            :  0.393146E-01  0.467526E-01 -0.157938E+00
  atom #   10
   Hellmann-Feynman              :  0.267887E+01  0.391493E+01  0.220804E+01
   Ionic forces                  :  0.000000E+00  0.000000E+00  0.000000E+00
   Multipole                     :  0.733769E-01 -0.438183E-01  0.180381E+00
   Pulay + GGA                   : -0.132354E+01 -0.282026E+01 -0.268794E+00
   Van der Waals                 :  0.261222E-02 -0.142731E-01  0.488101E-02
   ----------------------------------------------------------------
   Total forces(  10)            :  0.143132E+01  0.103658E+01  0.212451E+01
  atom #   11
   Hellmann-Feynman              :  0.411686E+01 -0.236940E+01  0.142282E+02
   Ionic forces                  :  0.000000E+00  0.000000E+00  0.000000E+00
   Multipole                     :  0.342585E-01 -0.491011E+00  0.957869E+00
   Pulay + GGA                   : -0.325300E+01  0.333409E+01 -0.142304E+02
   Van der Waals                 : -0.988650E-03 -0.122307E-01  0.590539E-02
   ----------------------------------------------------------------
   Total forces(  11)            :  0.897131E+00  0.461451E+00  0.961518E+00
  atom #   12
   Hellmann-Feynman              : -0.396933E+01 -0.141292E+02  0.142749E+00
   Ionic forces                  :  0.000000E+00  0.000000E+00  0.000000E+00
   Multipole                     : -0.112819E+01 -0.155487E+01  0.659796E-01
   Pulay + GGA                   :  0.320882E+01  0.142092E+02 -0.161522E+01
   Van der Waals                 :  0.192486E-02  0.676377E-02  0.300373E-02
   ----------------------------------------------------------------
   Total forces(  12)            : -0.188678E+01 -0.146809E+01 -0.140349E+01
  atom #   13
   Hellmann-Feynman              : -0.792359E+00 -0.930873E+00 -0.998084E+00
   Ionic forces                  :  0.000000E+00  0.000000E+00  0.000000E+00
   Multipole                     : -0.161035E-01  0.505893E-01 -0.253306E-01
   Pulay + GGA                   :  0.220104E+00 -0.289113E+00  0.328637E+00
   Van der Waals                 : -0.343114E-02  0.428534E-02  0.710639E-03
   ----------------------------------------------------------------
   Total forces(  13)            : -0.591790E+00 -0.116511E+01 -0.694067E+00

  Timings for VdW correction (Tkatchenko-Scheffler 2009 or later):
  | CPU time:        0.090 s, Wall clock time:        0.091 s.
  Removing unitary transformations (pure translations, rotations) from forces on atoms.
  Atomic forces before filtering:
  | Net force on center of mass :  -0.351574E-02  0.449346E-03 -0.703872E-02 eV/A
  | Net torque on center of mass:   0.469091E-02  0.272075E-02 -0.670895E-02 eV
  Atomic forces after filtering:
  | Net force on center of mass :   0.535218E-15  0.356812E-15  0.267609E-15 eV/A
  | Net torque on center of mass:   0.472042E-15  0.944085E-16  0.141613E-14 eV

  Energy and forces in a compact form:
  | Total energy uncorrected      :         -0.880239805073447E+04 eV
  | Total energy corrected        :         -0.880239805073447E+04 eV  <-- do not rely on this value for anything but (periodic) metals
  | Electronic free energy        :         -0.880239805073447E+04 eV
  Total atomic forces (unitary forces cleaned) [eV/Ang]:
  |   1         -0.420583488264295E+00          0.369075530630161E+00         -0.256350145005408E+00
  |   2          0.251746647435730E+00          0.227249384343059E-01         -0.276892675733270E-01
  |   3          0.636894196987095E+00          0.796728732000317E+00          0.545731041510846E+00
  |   4         -0.292642684598423E+00         -0.329723752471261E+00         -0.192869731392151E+00
  |   5         -0.300276357024432E-01          0.551432452390782E+00         -0.120009720515233E+01
  |   6          0.165520749445614E+00         -0.317880377285211E+00          0.114210842692217E+00
  |   7         -0.223044401781815E+00          0.321263217414041E-01         -0.747409446241553E-02
  |   8          0.209235393046171E-01         -0.359360153487803E-01          0.190923299988394E+00
  |   9          0.390498294865291E-01          0.468102100300790E-01         -0.157650679966398E+00
  |  10          0.143179540561069E+01          0.103664501399351E+01          0.212519936276793E+01
  |  11          0.897556013616048E+00          0.461723379362636E+00          0.962273872455352E+00
  |  12         -0.188605380335068E+01         -0.146826894757124E+01         -0.140276129764726E+01
  |  13         -0.591134368188669E+00         -0.116545748590670E+01         -0.693445998215448E+00

  ------------------------------------ 
  Start decomposition of the XC Energy 
  ------------------------------------ 
  X and C from original XC functional choice 
  Hartree-Fock Energy :          0.000000000 Ha              0.000000000 eV
  X Energy            :        -41.050721372 Ha          -1117.046963258 eV
  C Energy            :         -1.603831900 Ha            -43.642486512 eV
  Total XC Energy     :        -42.654553272 Ha          -1160.689449769 eV
  ------------------------------------ 
  LDA X and C from self-consistent density 
  X Energy LDA        :        -37.272878973 Ha          -1014.246641169 eV
  C Energy LDA        :         -3.139997114 Ha            -85.443668807 eV
  ------------------------------------ 
  End decomposition of the XC Energy 
  ------------------------------------ 

------------------------------------------------------------

------------------------------------------------------------------------------
  Final output of selected total energy values:

  The following output summarizes some interesting total energy values
  at the end of a run (AFTER all relaxation, molecular dynamics, etc.).

  | Total energy of the DFT / Hartree-Fock s.c.f. calculation      :          -8802.398050734 eV
  | Final zero-broadening corrected energy (caution - metals only) :          -8802.398050734 eV
  | For reference only, the value of 1 Hartree used in FHI-aims is :             27.211384500 eV

  Before relying on these values, please be sure to understand exactly which
  total energy value is referred to by a given number. Different objects may
  all carry the same name 'total energy'. Definitions:

  Total energy of the DFT / Hartree-Fock s.c.f. calculation:
  | Note that this energy does not include ANY quantities calculated after the
  | s.c.f. cycle, in particular not ANY RPA, MP2, etc. many-body perturbation terms.

  Final zero-broadening corrected energy:
  | For metallic systems only, a broadening of the occupation numbers at the Fermi
  | level can be extrapolated back to zero broadening by an electron-gas inspired
  | formula. For all systems that are not real metals, this value can be
  | meaningless and should be avoided.

------------------------------------------------------------------------------
  Methods described in the following list of references were used in this FHI-aims run.
  If you publish the results, please make sure to cite these reference if they apply.
  FHI-aims is an academic code, and for our developers (often, Ph.D. students
  and postdocs), scientific credit in the community is essential.
  Thank you for helping us!

  For any use of FHI-aims, please cite:

    Volker Blum, Ralf Gehrke, Felix Hanke, Paula Havu, Ville Havu,
    Xinguo Ren, Karsten Reuter, and Matthias Scheffler
    'Ab initio molecular simulations with numeric atom-centered orbitals'
    Computer Physics Communications 180, 2175-2196 (2009)
    http://dx.doi.org/10.1016/j.cpc.2009.06.022


  The scalable eigensolver library ELPA was used in your run.
  ELPA is essential especially for large systems on hundreds or thousands of CPUs.
  For ELPA, please cite:

    Andreas Marek, Volker Blum, Rainer Johanni, Ville Havu, Bruno Lang,
    Thomas Auckenthaler, Alexander Heinecke, Hans-Joachim Bungartz, and Hermann Lederer,
    'The ELPA Library - Scalable Parallel Eigenvalue Solutions
    for Electronic Structure Theory and Computational Science'
    The Journal of Physics: Condensed Matter 26, 213201 (2014).
    http://dx.doi.org/10.1088/0953-8984/26/21/213201


  The ELSI infrastructure was used in your run to solve the Kohn-Sham electronic structure.
  Please check out http://elsi-interchange.org to learn more.
  If scalability is important for your project, please acknowledge ELSI by citing:

    V. W-z. Yu, F. Corsetti, A. Garcia, W. P. Huhn, M. Jacquelin, W. Jia,
    B. Lange, L. Lin, J. Lu, W. Mi, A. Seifitokaldani, A. Vazquez-Mayagoitia,
    C. Yang, H. Yang, and V. Blum
    'ELSI: A unified software interface for Kohn-Sham electronic structure solvers'
    Computer Physics Communications 222, 267-285 (2018).
    http://dx.doi.org/10.1016/j.cpc.2017.09.007


  For the real-space grid partitioning and parallelization used in this calculation, please cite:

    Ville Havu, Volker Blum, Paula Havu, and Matthias Scheffler,
    'Efficient O(N) integration for all-electron electronic structure calculation'
    'using numerically tabulated basis functions'
    Journal of Computational Physics 228, 8367-8379 (2009).
    http://dx.doi.org/10.1016/j.jcp.2009.08.008

  Of course, there are many other important community references, e.g., those cited in the
  above references. Our list is limited to references that describe implementations in the
  FHI-aims code. The reason is purely practical (length of this list) - please credit others as well.

------------------------------------------------------------
          Leaving FHI-aims.
          Date     :  20200710, Time     :  150712.496

          Computational steps:
          | Number of self-consistency cycles          :           16
          | Number of SCF (re)initializations          :            1

          Detailed time accounting                     :  max(cpu_time)    wall_clock(cpu1)
          | Total time                                 :       22.891 s          22.941 s
          | Preparation time                           :        0.147 s           0.151 s
          | Boundary condition initalization           :        0.000 s           0.000 s
          | Grid partitioning                          :        0.113 s           0.113 s
          | Preloading free-atom quantities on grid    :        0.002 s           0.002 s
          | Free-atom superposition energy             :        0.084 s           0.085 s
          | Total time for integrations                :        8.727 s           8.734 s
          | Total time for solution of K.-S. equations :        0.037 s           0.039 s
          | Total time for density & force components  :        7.229 s           7.241 s
          | Total time for mixing                      :        0.217 s           0.218 s
          | Total time for Hartree multipole update    :        0.141 s           0.140 s
          | Total time for Hartree multipole sum       :        5.789 s           5.797 s
          | Total time for total energy evaluation     :        0.003 s           0.001 s
          | Total time for vdW correction              :        0.090 s           0.091 s

          Partial memory accounting:
          | Residual value for overall tracked memory usage across tasks :           0.000 MB (should be 0.000 MB)
          | Peak values for overall tracked memory usage (after allocating hessian_basis_wave):
          |   Minimum:        1.622 MB (on task 1)
          |   Maximum:        1.622 MB (on task 1)
          |   Average:        1.622 MB
          | Largest tracked array allocation (hessian_basis_wave):
          |   Minimum:        0.794 MB (on task 1)
          |   Maximum:        0.794 MB (on task 1)
          |   Average:        0.794 MB
          Note:  These values currently only include a subset of arrays which are explicitly tracked.
          The "true" memory usage will be greater.

          Have a nice day.
------------------------------------------------------------
