  MPI-parallelism will be employed.
------------------------------------------------------------
          Invoking FHI-aims ...
          Version 171221_1
          Compiled on 2019/09/09 at 14:39:39 on host puhti-login2.bullx.

          When using FHI-aims, please cite the following reference:

          Volker Blum, Ralf Gehrke, Felix Hanke, Paula Havu,
          Ville Havu, Xinguo Ren, Karsten Reuter, and Matthias Scheffler,
          'Ab Initio Molecular Simulations with Numeric Atom-Centered Orbitals',
          Computer Physics Communications 180, 2175-2196 (2009)

          For any questions about FHI-aims, please visit the aimsclub website
          with its forums and wiki. Contributions to both the forums and the
          wiki are warmly encouraged - they are for you, and everyone is welcome there.

------------------------------------------------------------



  Date     :  20200710, Time     :  152013.989
  Time zero on CPU 1             :   0.115590000000000E-01  s.
  Internal wall clock time zero  :           363626413.989  s.

  FHI-aims created a unique identifier for this run for later identification
  aims_uuid : BE35541B-8151-4E40-A2C2-AB3978271B9D

  Using        1 parallel tasks.
  Task        0 on host r18c41.bullx reporting.

  Performing system and environment tests:
  | Environment variable OMP_NUM_THREADS correctly set to 1.
  | Stacksize not measured: no C compiler
  | Checking for scalapack...
  | Testing pdtran()...
  | All pdtran() tests passed.

  Obtaining array dimensions for all initial allocations:
  
  -----------------------------------------------------------------------
  Parsing control.in (first pass over file, find array dimensions only).
  The contents of control.in will be repeated verbatim below
  unless switched off by setting 'verbatim_writeout .false.' .
  in the first line of control.in .
  -----------------------------------------------------------------------
  
  #########################################################################################
  #
  #  Volker Blum, FHI 2009 : Test run input file control.in for simple H2O
  #
  #########################################################################################
  #
  #  Physical model
  #
    xc                 pbe
    vdw_correction_hirshfeld
    spin               none
    relativistic       none
    charge             0.
  #
  #  SCF convergence
  #
    occupation_type    gaussian 0.01
    mixer              pulay
      n_max_pulay        10
      charge_mix_param   0.2
    sc_accuracy_rho    1E-5
    sc_accuracy_eev    1E-3
    sc_accuracy_etot   1E-6
    sc_accuracy_forces 1E-4
    sc_iter_limit      100
  #
  #  Relaxation
  #
  #  relax_geometry   bfgs 1.e-3
  #
  ################################################################################
  #
  #  FHI-aims code project
  #  VB, Fritz-Haber Institut, 2009
  #
  #  Suggested "light" defaults for H atom (to be pasted into control.in file)
  #  Be sure to double-check any results obtained with these settings for post-processing,
  #  e.g., with the "tight" defaults and larger basis sets.
  #
  ################################################################################
    species        H
  #     global species definitions
      nucleus             1
      mass                1.00794
  #
      l_hartree           4
  #
      cut_pot             3.5  1.5  1.0
      basis_dep_cutoff    1e-4
  #
      radial_base         24 5.0
      radial_multiplier   1
      angular_grids       specified
        division   0.2421   50
        division   0.3822  110
        division   0.4799  194
        division   0.5341  302
  #      division   0.5626  434
  #      division   0.5922  590
  #      division   0.6542  770
  #      division   0.6868 1202
  #      outer_grid  770
        outer_grid  302
  ################################################################################
  #
  #  Definition of "minimal" basis
  #
  ################################################################################
  #     valence basis states
      valence      1  s   1.
  #     ion occupancy
      ion_occ      1  s   0.5
  ################################################################################
  #
  #  Suggested additional basis functions. For production calculations,
  #  uncomment them one after another (the most important basis functions are
  #  listed first).
  #
  #  Basis constructed for dimers: 0.5 A, 0.7 A, 1.0 A, 1.5 A, 2.5 A
  #
  ################################################################################
  #  "First tier" - improvements: -1014.90 meV to -62.69 meV
       hydro 2 s 2.1
       hydro 2 p 3.5
  #  "Second tier" - improvements: -12.89 meV to -1.83 meV
  #     hydro 1 s 0.85
  #     hydro 2 p 3.7
  #     hydro 2 s 1.2
  #     hydro 3 d 7
  #  "Third tier" - improvements: -0.25 meV to -0.12 meV
  #     hydro 4 f 11.2
  #     hydro 3 p 4.8
  #     hydro 4 d 9
  #     hydro 3 s 3.2
  ################################################################################
  #
  #  FHI-aims code project
  #  VB, Fritz-Haber Institut, 2009
  #
  #  Suggested "light" defaults for C atom (to be pasted into control.in file)
  #  Be sure to double-check any results obtained with these settings for post-processing,
  #  e.g., with the "tight" defaults and larger basis sets.
  #
  ################################################################################
    species        C
  #     global species definitions
      nucleus             6
      mass                12.0107
  #
      l_hartree           4
  #
      cut_pot             3.5  1.5  1.0
      basis_dep_cutoff    1e-4
  #
      radial_base         34 5.0
      radial_multiplier   1
      angular_grids specified
        division   0.3326   50
        division   0.5710  110
        division   0.7727  194
        division   0.8772  302
  #      division   0.9334  434
  #      division   0.9625  590
  #      division   0.9924  770
  #      division   1.0230  974
  #      division   1.4589 1202
  #     outer_grid  974
       outer_grid 302
  ################################################################################
  #
  #  Definition of "minimal" basis
  #
  ################################################################################
  #     valence basis states
      valence      2  s   2.
      valence      2  p   2.
  #     ion occupancy
      ion_occ      2  s   1.
      ion_occ      2  p   1.
  ################################################################################
  #
  #  Suggested additional basis functions. For production calculations,
  #  uncomment them one after another (the most important basis functions are
  #  listed first).
  #
  #  Constructed for dimers: 1.0 A, 1.25 A, 1.5 A, 2.0 A, 3.0 A
  #
  ################################################################################
  #  "First tier" - improvements: -1214.57 meV to -155.61 meV
       hydro 2 p 1.7
       hydro 3 d 6
       hydro 2 s 4.9
  #  "Second tier" - improvements: -67.75 meV to -5.23 meV
  #     hydro 4 f 9.8
  #     hydro 3 p 5.2
  #     hydro 3 s 4.3
  #     hydro 5 g 14.4
  #     hydro 3 d 6.2
  #  "Third tier" - improvements: -2.43 meV to -0.60 meV
  #     hydro 2 p 5.6
  #     hydro 2 s 1.4
  #     hydro 3 d 4.9
  #     hydro 4 f 11.2
  #  "Fourth tier" - improvements: -0.39 meV to -0.18 meV
  #     hydro 2 p 2.1
  #     hydro 5 g 16.4
  #     hydro 4 d 13.2
  #     hydro 3 s 13.6
  #     hydro 4 f 17.6
  #  Further basis functions - improvements: -0.08 meV and below
  #     hydro 3 s 2
  #     hydro 3 p 6
  #     hydro 4 d 20
  ################################################################################
  #
  #  FHI-aims code project
  #  VB, Fritz-Haber Institut, 2009
  #
  #  Suggested "light" defaults for N atom (to be pasted into control.in file)
  #  Be sure to double-check any results obtained with these settings for post-processing,
  #  e.g., with the "tight" defaults and larger basis sets.
  #
  ################################################################################
    species        N
  #     global species definitions
      nucleus             7
      mass                14.0067
  #
      l_hartree           4
  #
      cut_pot             3.5  1.5  1.0
      basis_dep_cutoff    1e-4
  #
      radial_base         35 5.0
      radial_multiplier   1
      angular_grids       specified
        division   0.2599   50
        division   0.4601  110
        division   0.5885  194
        division   0.6503  302
  #      division   0.6939  434
  #      division   0.7396  590
  #      division   0.7632  770
  #      division   0.8122  974
  #      division   1.1604 1202
  #      outer_grid  974
        outer_grid  302
  ################################################################################
  #
  #  Definition of "minimal" basis
  #
  ################################################################################
  #     valence basis states
      valence      2  s   2.
      valence      2  p   3.
  #     ion occupancy
      ion_occ      2  s   1.
      ion_occ      2  p   2.
  ################################################################################
  #
  #  Suggested additional basis functions. For production calculations,
  #  uncomment them one after another (the most important basis functions are
  #  listed first).
  #
  #  Constructed for dimers: 1.0 A, 1.1 A, 1.5 A, 2.0 A, 3.0 A
  #
  ################################################################################
  #  "First tier" - improvements: -1193.42 meV to -220.60 meV
       hydro 2 p 1.8
       hydro 3 d 6.8
       hydro 3 s 5.8
  #  "Second tier" - improvements: -80.21 meV to -6.86 meV
  #     hydro 4 f 10.8
  #     hydro 3 p 5.8
  #     hydro 1 s 0.8
  #     hydro 5 g 16
  #     hydro 3 d 4.9
  #  "Third tier" - improvements: -4.29 meV to -0.53 meV
  #     hydro 3 s 16
  #     ionic 2 p auto
  #     hydro 3 d 6.6
  #     hydro 4 f 11.6
  #  "Fourth tier" - improvements: -0.75 meV to -0.25 meV
  #     hydro 2 p 4.5
  #     hydro 2 s 2.4
  #     hydro 5 g 14.4
  #     hydro 4 d 14.4
  #     hydro 4 f 16.8
  # Further basis functions - -0.21 meV and below
  #     hydro 3 p 14.8
  #     hydro 3 s 4.4
  #     hydro 3 d 19.6
  #     hydro 5 g 12.8
  ################################################################################
  #
  #  FHI-aims code project
  #  VB, Fritz-Haber Institut, 2009
  #
  #  Suggested "light" defaults for O atom (to be pasted into control.in file)
  #  Be sure to double-check any results obtained with these settings for post-processing,
  #  e.g., with the "tight" defaults and larger basis sets.
  #
  ################################################################################
    species        O
  #     global species definitions
      nucleus             8
      mass                15.9994
  #
      l_hartree           4
  #
      cut_pot             3.5  1.5  1.0
      basis_dep_cutoff    1e-4
  #
      radial_base         36 5.0
      radial_multiplier   1
       angular_grids specified
        division   0.2659   50
        division   0.4451  110
        division   0.6052  194
        division   0.7543  302
  #      division   0.8014  434
  #      division   0.8507  590
  #      division   0.8762  770
  #      division   0.9023  974
  #      division   1.2339 1202
  #      outer_grid 974
        outer_grid 302
  ################################################################################
  #
  #  Definition of "minimal" basis
  #
  ################################################################################
  #     valence basis states
      valence      2  s   2.
      valence      2  p   4.
  #     ion occupancy
      ion_occ      2  s   1.
      ion_occ      2  p   3.
  ################################################################################
  #
  #  Suggested additional basis functions. For production calculations,
  #  uncomment them one after another (the most important basis functions are
  #  listed first).
  #
  #  Constructed for dimers: 1.0 A, 1.208 A, 1.5 A, 2.0 A, 3.0 A
  #
  ################################################################################
  #  "First tier" - improvements: -699.05 meV to -159.38 meV
       hydro 2 p 1.8
       hydro 3 d 7.6
       hydro 3 s 6.4
  #  "Second tier" - improvements: -49.91 meV to -5.39 meV
  #     hydro 4 f 11.6
  #     hydro 3 p 6.2
  #     hydro 3 d 5.6
  #     hydro 5 g 17.6
  #     hydro 1 s 0.75
  #  "Third tier" - improvements: -2.83 meV to -0.50 meV
  #     ionic 2 p auto
  #     hydro 4 f 10.8
  #     hydro 4 d 4.7
  #     hydro 2 s 6.8
  #  "Fourth tier" - improvements: -0.40 meV to -0.12 meV
  #     hydro 3 p 5
  #     hydro 3 s 3.3
  #     hydro 5 g 15.6
  #     hydro 4 f 17.6
  #     hydro 4 d 14
  # Further basis functions - -0.08 meV and below
  #     hydro 3 s 2.1
  #     hydro 4 d 11.6
  #     hydro 3 p 16
  #     hydro 2 s 17.2
  
  -----------------------------------------------------------------------
  Completed first pass over input file control.in .
  -----------------------------------------------------------------------
  
  
  -----------------------------------------------------------------------
  Parsing geometry.in (first pass over file, find array dimensions only).
  The contents of geometry.in will be repeated verbatim below
  unless switched off by setting 'verbatim_writeout .false.' .
  in the first line of geometry.in .
  -----------------------------------------------------------------------
  
  atom  0.00000 0.00000 0.00000 C
  atom  1.09300 0.00000 0.00000 H
  atom  -0.47961 0.00000 -1.41207 N
  atom  -0.66165 -0.96346 -1.69568 H
  atom  -1.33412 0.55037 -1.46704 H
  atom  -0.49584 1.26211 0.72868 C
  atom  -1.58789 1.28919 0.74431 H
  atom  -0.13407 1.27425 1.75947 H
  atom  -0.13407 2.16087 0.22380 H
  atom  -0.39425 -1.28861 0.74398 C
  atom  -0.10189 -1.56493 1.88303 O
  atom  -1.10210 -2.13717 0.06896 O
  atom  -0.66521 -2.95355 0.36499 H
  
  -----------------------------------------------------------------------
  Completed first pass over input file geometry.in .
  -----------------------------------------------------------------------
  

  Basic array size parameters:
  | Number of species                 :        4
  | Number of atoms                   :       13
  | Max. basis fn. angular momentum   :        2
  | Max. atomic/ionic basis occupied n:        2
  | Max. number of basis fn. types    :        2
  | Max. radial fns per species/type  :        3
  | Max. logarithmic grid size        :     1301
  | Max. radial integration grid size :       36
  | Max. angular integration grid size:      302
  | Max. angular grid division number :        8
  | Radial grid for Hartree potential :     1301
  | Number of spin channels           :        1

------------------------------------------------------------
          Reading file control.in.
------------------------------------------------------------
  XC: Using PBE gradient-corrected functionals.
  Spin treatment: No spin polarisation.
  Non-relativistic treatment of kinetic energy.
  Charge =   0.000000E+00: Neutral system requested explicitly.
  Occupation type: Gaussian broadening, width =   0.100000E-01 eV.
  Using pulay charge density mixing.
  Pulay mixing - number of memorized iterations:   10
  Charge density mixing - mixing parameter:     0.2000
  Convergence accuracy of self-consistent charge density:  0.1000E-04
  Convergence accuracy of sum of eigenvalues:  0.1000E-02
  Convergence accuracy of total energy:  0.1000E-05
  Convergence accuracy of forces:  0.1000E-03
  Maximum number of s.-c. iterations  :   100
 
  Reading configuration options for species H                   .
  | Found nuclear charge :   1.0000
  | Found atomic mass :    1.00794000000000      amu
  | Found l_max for Hartree potential  :   4
  | Found cutoff potl. onset [A], width [A], scale factor :    3.50000    1.50000    1.00000
  | Threshold for basis-dependent cutoff potential is   0.100000E-03
  | Found data for basic radial integration grid :    24 points, outermost radius =    5.000 A
  | Found multiplier for basic radial grid :   1
  | Found angular grid specification: user-specified.
  | Specified grid contains     5 separate shells.
  | Check grid settings after all constraints further below.
  | Found free-atom valence shell :  1 s   1.000
  | No ionic wave fns used. Skipping ion_occ.
  | Found hydrogenic basis function :  2 s   2.100
  | Found hydrogenic basis function :  2 p   3.500
  Species H                   : Missing cutoff potential type.
  Defaulting to exp(1/x)/(1-x)^2 type cutoff potential.
  Species H : No 'logarithmic' tag. Using default grid for free atom:
  | Default logarithmic grid data [bohr] : 0.1000E-03 0.1000E+03 0.1012E+01
  Species H : On-site basis accuracy parameter (for Gram-Schmidt orthonormalisation) not specified.
  Using default value basis_acc =  0.1000000E-03.
  Species H                   : Using default innermost maximum threshold i_radial=  2 for radial functions.
  Species H                   : Default cutoff onset for free atom density etc. : 0.35000000E+01 AA.
  Species H                   : Basic radial grid will be enhanced according to radial_multiplier =   1, to contain    24 grid points.
 
  Reading configuration options for species C                   .
  | Found nuclear charge :   6.0000
  | Found atomic mass :    12.0107000000000      amu
  | Found l_max for Hartree potential  :   4
  | Found cutoff potl. onset [A], width [A], scale factor :    3.50000    1.50000    1.00000
  | Threshold for basis-dependent cutoff potential is   0.100000E-03
  | Found data for basic radial integration grid :    34 points, outermost radius =    5.000 A
  | Found multiplier for basic radial grid :   1
  | Found angular grid specification: user-specified.
  | Specified grid contains     5 separate shells.
  | Check grid settings after all constraints further below.
  | Found free-atom valence shell :  2 s   2.000
  | Found free-atom valence shell :  2 p   2.000
  | No ionic wave fns used. Skipping ion_occ.
  | No ionic wave fns used. Skipping ion_occ.
  | Found hydrogenic basis function :  2 p   1.700
  | Found hydrogenic basis function :  3 d   6.000
  | Found hydrogenic basis function :  2 s   4.900
  Species C                   : Missing cutoff potential type.
  Defaulting to exp(1/x)/(1-x)^2 type cutoff potential.
  Species C : No 'logarithmic' tag. Using default grid for free atom:
  | Default logarithmic grid data [bohr] : 0.1000E-03 0.1000E+03 0.1012E+01
  Species C : On-site basis accuracy parameter (for Gram-Schmidt orthonormalisation) not specified.
  Using default value basis_acc =  0.1000000E-03.
  Species C                   : Using default innermost maximum threshold i_radial=  2 for radial functions.
  Species C                   : Default cutoff onset for free atom density etc. : 0.35000000E+01 AA.
  Species C                   : Basic radial grid will be enhanced according to radial_multiplier =   1, to contain    34 grid points.
 
  Reading configuration options for species N                   .
  | Found nuclear charge :   7.0000
  | Found atomic mass :    14.0067000000000      amu
  | Found l_max for Hartree potential  :   4
  | Found cutoff potl. onset [A], width [A], scale factor :    3.50000    1.50000    1.00000
  | Threshold for basis-dependent cutoff potential is   0.100000E-03
  | Found data for basic radial integration grid :    35 points, outermost radius =    5.000 A
  | Found multiplier for basic radial grid :   1
  | Found angular grid specification: user-specified.
  | Specified grid contains     5 separate shells.
  | Check grid settings after all constraints further below.
  | Found free-atom valence shell :  2 s   2.000
  | Found free-atom valence shell :  2 p   3.000
  | No ionic wave fns used. Skipping ion_occ.
  | No ionic wave fns used. Skipping ion_occ.
  | Found hydrogenic basis function :  2 p   1.800
  | Found hydrogenic basis function :  3 d   6.800
  | Found hydrogenic basis function :  3 s   5.800
  Species N                   : Missing cutoff potential type.
  Defaulting to exp(1/x)/(1-x)^2 type cutoff potential.
  Species N : No 'logarithmic' tag. Using default grid for free atom:
  | Default logarithmic grid data [bohr] : 0.1000E-03 0.1000E+03 0.1012E+01
  Species N : On-site basis accuracy parameter (for Gram-Schmidt orthonormalisation) not specified.
  Using default value basis_acc =  0.1000000E-03.
  Species N                   : Using default innermost maximum threshold i_radial=  2 for radial functions.
  Species N                   : Default cutoff onset for free atom density etc. : 0.35000000E+01 AA.
  Species N                   : Basic radial grid will be enhanced according to radial_multiplier =   1, to contain    35 grid points.
 
  Reading configuration options for species O                   .
  | Found nuclear charge :   8.0000
  | Found atomic mass :    15.9994000000000      amu
  | Found l_max for Hartree potential  :   4
  | Found cutoff potl. onset [A], width [A], scale factor :    3.50000    1.50000    1.00000
  | Threshold for basis-dependent cutoff potential is   0.100000E-03
  | Found data for basic radial integration grid :    36 points, outermost radius =    5.000 A
  | Found multiplier for basic radial grid :   1
  | Found angular grid specification: user-specified.
  | Specified grid contains     5 separate shells.
  | Check grid settings after all constraints further below.
  | Found free-atom valence shell :  2 s   2.000
  | Found free-atom valence shell :  2 p   4.000
  | No ionic wave fns used. Skipping ion_occ.
  | No ionic wave fns used. Skipping ion_occ.
  | Found hydrogenic basis function :  2 p   1.800
  | Found hydrogenic basis function :  3 d   7.600
  | Found hydrogenic basis function :  3 s   6.400
  Species O                   : Missing cutoff potential type.
  Defaulting to exp(1/x)/(1-x)^2 type cutoff potential.
  Species O : No 'logarithmic' tag. Using default grid for free atom:
  | Default logarithmic grid data [bohr] : 0.1000E-03 0.1000E+03 0.1012E+01
  Species O : On-site basis accuracy parameter (for Gram-Schmidt orthonormalisation) not specified.
  Using default value basis_acc =  0.1000000E-03.
  Species O                   : Using default innermost maximum threshold i_radial=  2 for radial functions.
  Species O                   : Default cutoff onset for free atom density etc. : 0.35000000E+01 AA.
  Species O                   : Basic radial grid will be enhanced according to radial_multiplier =   1, to contain    36 grid points.
 
  Finished reading input file 'control.in'. Consistency checks are next.
 
  MPI_IN_PLACE appears to work with this MPI implementation.
  | Keeping use_mpi_in_place .true. (see manual).
  Target number of points in a grid batch is not set. Defaulting to  100
  Method for grid partitioning is not set. Defaulting to parallel hash+maxmin partitioning.
  Batch size limit is not set. Defaulting to    200
  By default, will store active basis functions for each batch.
  If in need of memory, prune_basis_once .false. can be used to disable this option.
  communication_type for Hartree potential was not specified.
  Defaulting to calc_hartree .
  Pulay mixer: Number of initial linear mixing iterations not set.
  Defaulting to    0 iterations.
  Work space size for distributed Hartree potential not set.
  Defaulting to   0.200000E+03 MB.
  Algorithm-dependent basis array size parameters:
  | n_max_pulay                         :       10
  Presetting      1001 iterations before the initial mixing cycle
  is restarted anyway using the sc_init_iter criterion / keyword.
  Presetting a factor      1.000 between actual scf density residual
  and density convergence criterion sc_accuracy_rho below which sc_init_iter
  takes no effect.
  Geometry relaxation not requested: no relaxation will be performed.
  Handling of forces: Unphysical translation and rotation will be removed from forces.
  No accuracy limit for integral partition fn. given. Defaulting to  0.1000E-14.
  No threshold value for u(r) in integrations given. Defaulting to  0.1000E-05.
  No accuracy for occupation numbers given. Defaulting to  0.1000E-12.
  No threshold value for occupation numbers given. Defaulting to  0.0000E+00.
  No accuracy for fermi level given. Defaulting to  0.1000E-19.
  Maximum # of iterations to find E_F not set. Defaulting to  200.
  Preferred method for the eigenvalue solver ('KS_method') not specified in 'control.in'.
  Defaulting to serial version, 'lapack_fast'.
  Will not use alltoall communication since running on < 1024 CPUs.
  Threshold for basis singularities not set.
  Default threshold for basis singularities:  0.1000E-04
  partition_type (choice of integration weights) for integrals was not specified.
  | Using a version of the partition function of Stratmann and coworkers ('stratmann_smoother').
  | At each grid point, the set of atoms used to build the partition table is smoothly restricted to
  | only those atoms whose free-atom density would be non-zero at that grid point.
  Partitioning for Hartree potential was not defined. Using partition_type for integrals.
  | Adjusted default value of keyword multip_moments_threshold to:       0.10000000E-11
  | This value may affect high angular momentum components of the Hartree potential in periodic systems.
  No q(lm)/r^(l+1) cutoff set for long-range Hartree potential.
  | Using default value of  0.100000E-09 .
  | Verify using the multipole_threshold keyword.
  Defaulting to new monopole extrapolation.
  Density update method: automatic selection selected.
------------------------------------------------------------


------------------------------------------------------------
          Reading geometry description geometry.in.
------------------------------------------------------------
  Input structure read successfully.
  The structure contains       13 atoms,  and a total of         48.000 electrons.

  Input geometry:
  | No unit cell requested.
  | Atomic structure:
  |       Atom                x [A]            y [A]            z [A]
  |    1: Species C             0.00000000        0.00000000        0.00000000
  |    2: Species H             1.09300000        0.00000000        0.00000000
  |    3: Species N            -0.47961000        0.00000000       -1.41207000
  |    4: Species H            -0.66165000       -0.96346000       -1.69568000
  |    5: Species H            -1.33412000        0.55037000       -1.46704000
  |    6: Species C            -0.49584000        1.26211000        0.72868000
  |    7: Species H            -1.58789000        1.28919000        0.74431000
  |    8: Species H            -0.13407000        1.27425000        1.75947000
  |    9: Species H            -0.13407000        2.16087000        0.22380000
  |   10: Species C            -0.39425000       -1.28861000        0.74398000
  |   11: Species O            -0.10189000       -1.56493000        1.88303000
  |   12: Species O            -1.10210000       -2.13717000        0.06896000
  |   13: Species H            -0.66521000       -2.95355000        0.36499000
  |

  | The smallest distance between any two atoms is         0.97210233 AA.
  |
  | The first atom of this pair is atom number                     12 .
  | The second atom of this pair is atom number                    13 .

  Number of empty states per atom not set in control.in - providing a guess from actual geometry.
  | Total number of empty states used during s.c.f. cycle:       29
  If you use a very high smearing, use empty_states (per atom!) in control.in to increase this value.

  Structure-dependent array size parameters: 
  | Maximum number of distinct radial functions  :       21
  | Maximum number of basis functions            :      119
  | Number of Kohn-Sham states (occupied + empty):       53
------------------------------------------------------------

------------------------------------------------------------
          Preparing all fixed parts of the calculation.
------------------------------------------------------------
  Determining machine precision:
    2.225073858507201E-308
  Setting up grids for atomic and cluster calculations.

  Creating wave function, potential, and density for free atoms.

  Species: H

  List of occupied orbitals and eigenvalues:
    n    l              occ      energy [Ha]    energy [eV]
    1    0           1.0000        -0.237589        -6.4651


  Species: C

  List of occupied orbitals and eigenvalues:
    n    l              occ      energy [Ha]    energy [eV]
    1    0           2.0000       -10.038835      -273.1706
    2    0           2.0000        -0.502696       -13.6791
    2    1           2.0000        -0.191971        -5.2238


  Species: N

  List of occupied orbitals and eigenvalues:
    n    l              occ      energy [Ha]    energy [eV]
    1    0           2.0000       -14.128000      -384.4424
    2    0           2.0000        -0.681077       -18.5330
    2    1           3.0000        -0.259788        -7.0692


  Species: O

  List of occupied orbitals and eigenvalues:
    n    l              occ      energy [Ha]    energy [eV]
    1    0           2.0000       -18.898188      -514.2459
    2    0           2.0000        -0.878505       -23.9053
    2    1           4.0000        -0.331779        -9.0282

  Creating fixed part of basis set: Ionic, confined, hydrogenic.
 
  H                    hydrogenic:
 
  List of hydrogenic basis orbitals: 
    n    l      effective z      eigenvalue [eV]  inner max. [A]     outer max. [A]     outer radius [A]   
    2    0         2.100000       -14.9728           0.193243           1.317208           4.583499
    2    1         3.500000       -41.6669           0.602369           0.602369           3.723403
 
 
  C                    hydrogenic:
 
  List of hydrogenic basis orbitals: 
    n    l      effective z      eigenvalue [eV]  inner max. [A]     outer max. [A]     outer radius [A]   
    2    1         1.700000        -9.7616           1.230570           1.230570           4.607917
    3    2         6.000000       -54.4224           0.792453           0.792453           3.883070
    2    0         4.900000       -81.6679           0.082559           0.562749           3.078220
 
 
  N                    hydrogenic:
 
  List of hydrogenic basis orbitals: 
    n    l      effective z      eigenvalue [eV]  inner max. [A]     outer max. [A]     outer radius [A]   
    2    1         1.800000       -10.9749           1.177451           1.177451           4.573712
    3    2         6.800000       -69.9026           0.704619           0.704619           3.538137
    3    0         5.800000       -50.8545           0.067388           1.191934           4.250239
 
 
  O                    hydrogenic:
 
  List of hydrogenic basis orbitals: 
    n    l      effective z      eigenvalue [eV]  inner max. [A]     outer max. [A]     outer radius [A]   
    2    1         1.800000       -10.9749           1.164242           1.164242           4.578029
    3    2         7.600000       -87.3180           0.624125           0.624125           3.251020
    3    0         6.400000       -61.9207           0.061167           1.081902           4.001998
 

  Adding cutoff potential to free-atom effective potential.
  Creating atomic-like basis functions for current effective potential.

  Species H                   :

  List of atomic basis orbitals and eigenvalues:
    n    l      energy [Ha]    energy [eV]    outer radius [A]
    1    0        -0.237589        -6.4651       4.527807


  Species C                   :

  List of atomic basis orbitals and eigenvalues:
    n    l      energy [Ha]    energy [eV]    outer radius [A]
    1    0       -10.038835      -273.1706       1.934409
    2    0        -0.502696       -13.6791       4.496620
    2    1        -0.191971        -5.2238       4.551928


  Species N                   :

  List of atomic basis orbitals and eigenvalues:
    n    l      energy [Ha]    energy [eV]    outer radius [A]
    1    0       -14.128000      -384.4424       1.637919
    2    0        -0.681077       -18.5330       4.463241
    2    1        -0.259788        -7.0692       4.518138


  Species O                   :

  List of atomic basis orbitals and eigenvalues:
    n    l      energy [Ha]    energy [eV]    outer radius [A]
    1    0       -18.898188      -514.2459       1.415765
    2    0        -0.878505       -23.9053       4.413171
    2    1        -0.331779        -9.0282       4.522403

  Assembling full basis from fixed parts.
  | Species H :   atomic orbital   1 s accepted.
  | Species H :    hydro orbital   2 s accepted.
  | Species H :    hydro orbital   2 p accepted.
  | Species C :   atomic orbital   1 s accepted.
  | Species C :    hydro orbital   2 s accepted.
  | Species C :   atomic orbital   2 s accepted.
  | Species C :   atomic orbital   2 p accepted.
  | Species C :    hydro orbital   2 p accepted.
  | Species C :    hydro orbital   3 d accepted.
  | Species N :   atomic orbital   1 s accepted.
  | Species N :    hydro orbital   3 s accepted.
  | Species N :   atomic orbital   2 s accepted.
  | Species N :   atomic orbital   2 p accepted.
  | Species N :    hydro orbital   2 p accepted.
  | Species N :    hydro orbital   3 d accepted.
  | Species O :   atomic orbital   1 s accepted.
  | Species O :    hydro orbital   3 s accepted.
  | Species O :   atomic orbital   2 s accepted.
  | Species O :   atomic orbital   2 p accepted.
  | Species O :    hydro orbital   2 p accepted.
  | Species O :    hydro orbital   3 d accepted.
 
  Basis size parameters after reduction:
  | Total number of radial functions:       21
  | Total number of basis functions :      119
 
  Per-task memory consumption for arrays in subroutine allocate_ext:
  |           5.250512MB.
  Testing on-site integration grid accuracy.
  |  Species  Function  <phi|h_atom|phi> (log., in eV)  <phi|h_atom|phi> (rad., in eV)
           1        1                 -6.4663192853                 -6.4651273558
           1        2                 13.7111246313                 13.7170609718
           1        3                 25.2673269279                 25.2674696378
           2        4               -273.1705927641               -273.1705631568
           2        5                -10.7109323383                -10.7107120029
           2        6                 17.4381822266                 17.4352413244
           2        7                 -5.2255326521                 -5.2270484734
           2        8                  8.6835629259                  8.6603288385
           2        9                 27.4952418996                 27.4953360207
           3       10               -384.4424306495               -384.4423701208
           3       11                 12.5842251816                 12.5842222903
           3       12                -15.7264628251                -15.7264433455
           3       13                 -7.0696854293                 -7.0701769954
           3       14                  8.8090390882                  8.7901077751
           3       15                 35.9586762123                 35.9588528632
           4       16               -514.2458688638               -514.2457643834
           4       17                 15.1795651126                 15.1795290741
           4       18                -21.5359799773                -21.5360846186
           4       19                 -9.0283069236                 -9.0284644067
           4       20                  8.3027758564                  8.2834874195
           4       21                 45.8339351984                 45.8338762259

  Preparing densities etc. for the partition functions (integrals / Hartree potential).

  Preparations completed.
  max(cpu_time)          :      0.144 s.
  Wall clock time (cpu1) :      0.145 s.
------------------------------------------------------------

------------------------------------------------------------
          Begin self-consistency loop: Initialization.

          Date     :  20200710, Time     :  152014.148
------------------------------------------------------------

  Initializing index lists of integration centers etc. from given atomic structure:
  | Number of centers in hartree potential         :        13
  | Number of centers in hartree multipole         :        13
  | Number of centers in electron density summation:        13
  | Number of centers in basis integrals           :        13
  | Number of centers in integrals                 :        13
  | Number of centers in hamiltonian               :        13
  Partitioning the integration grid into batches with parallel hashing+maxmin method.
  | Number of batches:      955
  | Maximal batch size:     139
  | Minimal batch size:      66
  | Average batch size:      72.928
  | Standard deviation of batch sizes:      17.623

  Integration load balanced across     1 MPI tasks.
  Work distribution over tasks is as follows:
  Task     0 has      69646 integration points.
  Initializing partition tables, free-atom densities, potentials, etc. across the integration grid (initialize_grid_storage).
  | initialize_grid_storage: Actual outermost partition radius vs. multipole_radius_free
  | (-- VB: in principle, multipole_radius_free should be larger, hence this output)
  | Species        1: Confinement radius =              4.999999999999999 AA, multipole_radius_free =              5.054417573612229 AA.
  | Species        1: outer_partition_radius set to              5.054417573612229 AA .
  | Species        2: Confinement radius =              4.999999999999999 AA, multipole_radius_free =              5.019602836301480 AA.
  | Species        2: outer_partition_radius set to              5.019602836301480 AA .
  | Species        3: Confinement radius =              4.999999999999999 AA, multipole_radius_free =              5.043624274424571 AA.
  | Species        3: outer_partition_radius set to              5.043624274424571 AA .
  | Species        4: Confinement radius =              4.999999999999999 AA, multipole_radius_free =              5.048384829883283 AA.
  | Species        4: outer_partition_radius set to              5.048384829883283 AA .
  | Original list of interatomic distances with          13 x         13 entries is created.
  | Net number of integration points:    69646
  | of which are non-zero points    :    59523
  Renormalizing the initial density to the exact electron count on the 3D integration grid.
  | Initial density: Formal number of electrons (from input files) :      48.0000000000
  | Integrated number of electrons on 3D grid     :      47.9999993269
  | Charge integration error                      :      -0.0000006731
  | Normalization factor for density and gradient :       1.0000000140
  Obtaining max. number of non-zero basis functions in each batch (get_n_compute_maxes).
  | Maximal number of non-zero basis functions:      119 in task     0
  Selecting the method for density update.
  Loop over occupied states selected for charge density update.
  Allocating        0.050 MB for KS_eigenvector
  Integrating Hamiltonian matrix: batch-based integration.
  Time summed over all CPUs for integration: real work        0.489 s, elapsed        0.489 s
  Integrating overlap matrix.
  Time summed over all CPUs for integration: real work        0.209 s, elapsed        0.209 s

  Updating Kohn-Sham eigenvalues and eigenvectors using ELSI and the ELPA eigensolver.
  Overlap matrix is nonsingular
  | Lowest eigenvalue of overlap  :  0.56E-02
  | Highest eigenvalue of overlap :  0.61E+01
  Finished singularity check of overlap matrix
  | Time :     0.002 s
  Finished Cholesky decomposition
  | Time :     0.000 s
  Finished transformation to standard eigenproblem
  | Time :     0.000 s
  Starting LAPACK eigensolver
  Finished solving standard eigenproblem
  | Time :     0.002 s
  Finished back-transformation of eigenvectors
  | Time :     0.000 s

  Obtaining occupation numbers and chemical potential using ELSI.
  | Chemical potential (Fermi level):    -9.05074576eV
  Writing Kohn-Sham eigenvalues.

  State    Occupation    Eigenvalue [Ha]    Eigenvalue [eV]
      1       2.00000         -19.008252         -517.24085
      2       2.00000         -18.977913         -516.41530
      3       2.00000         -14.245789         -387.64765
      4       2.00000         -10.166831         -276.65354
      5       2.00000         -10.141244         -275.95728
      6       2.00000         -10.132134         -275.70939
      7       2.00000          -1.187319          -32.30858
      8       2.00000          -1.094449          -29.78146
      9       2.00000          -0.991863          -26.98996
     10       2.00000          -0.859938          -23.40011
     11       2.00000          -0.760159          -20.68498
     12       2.00000          -0.683669          -18.60357
     13       2.00000          -0.622895          -16.94983
     14       2.00000          -0.602475          -16.39418
     15       2.00000          -0.595220          -16.19676
     16       2.00000          -0.565930          -15.39973
     17       2.00000          -0.547531          -14.89909
     18       2.00000          -0.534186          -14.53593
     19       2.00000          -0.514693          -14.00550
     20       2.00000          -0.494405          -13.45345
     21       2.00000          -0.472822          -12.86614
     22       2.00000          -0.432448          -11.76750
     23       2.00000          -0.415674          -11.31108
     24       2.00000          -0.378023          -10.28652
     25       0.00000          -0.155758           -4.23838
     26       0.00000          -0.058092           -1.58076
     27       0.00000          -0.027310           -0.74314
     28       0.00000          -0.021046           -0.57268
     29       0.00000          -0.001149           -0.03125
     30       0.00000           0.005842            0.15896
     31       0.00000           0.019370            0.52709
     32       0.00000           0.032260            0.87783
     33       0.00000           0.042111            1.14589
     34       0.00000           0.059026            1.60617
     35       0.00000           0.098863            2.69020
     36       0.00000           0.132501            3.60554
     37       0.00000           0.157415            4.28348
     38       0.00000           0.200163            5.44672
     39       0.00000           0.204872            5.57484
     40       0.00000           0.241647            6.57556
     41       0.00000           0.246535            6.70856
     42       0.00000           0.274125            7.45931
     43       0.00000           0.292066            7.94752
     44       0.00000           0.302363            8.22771
     45       0.00000           0.344732            9.38064
     46       0.00000           0.351968            9.57754
     47       0.00000           0.372805           10.14454
     48       0.00000           0.410008           11.15689
     49       0.00000           0.420015           11.42918
     50       0.00000           0.461112           12.54750
     51       0.00000           0.489056           13.30788
     52       0.00000           0.540677           14.71257
     53       0.00000           0.585865           15.94221

  Highest occupied state (VBM) at    -10.28651780 eV
  | Occupation number:      2.00000000

  Lowest unoccupied state (CBM) at    -4.23837730 eV
  | Occupation number:      0.00000000

  Overall HOMO-LUMO gap:      6.04814050 eV.
  Calculating total energy contributions from superposition of free atom densities.

  Total energy components:
  | Sum of eigenvalues            :        -188.85171926 Ha       -5138.91674640 eV
  | XC energy correction          :         -41.79147001 Ha       -1137.20375913 eV
  | XC potential correction       :          53.72385474 Ha        1461.90046813 eV
  | Free-atom electrostatic energy:        -146.84608451 Ha       -3995.88526800 eV
  | Hartree energy correction     :           0.00000000 Ha           0.00000000 eV
  | vdW energy correction         :           0.00000000 Ha           0.00000000 eV
  | Entropy correction            :           0.00000000 Ha           0.00000000 eV
  | ---------------------------
  | Total energy                  :        -323.76541904 Ha       -8810.10530540 eV
  | Total energy, T -> 0          :        -323.76541904 Ha       -8810.10530540 eV  <-- do not rely on this value for anything but (periodic) metals
  | Electronic free energy        :        -323.76541904 Ha       -8810.10530540 eV

  Derived energy quantities:
  | Kinetic energy                :         320.49718044 Ha        8721.17200810 eV
  | Electrostatic energy          :        -602.47112948 Ha      -16394.07355436 eV
  | Energy correction for multipole
  | error in Hartree potential    :           0.00000000 Ha           0.00000000 eV
  | Sum of eigenvalues per atom                           :        -395.30128818 eV
  | Total energy (T->0) per atom                          :        -677.70040811 eV  <-- do not rely on this value for anything but (periodic) metals
  | Electronic free energy per atom                       :        -677.70040811 eV
  Initialize hartree_potential_storage
  Max. number of atoms included in rho_multipole:           13

  End scf initialization - timings             :  max(cpu_time)    wall_clock(cpu1)
  | Time for scf. initialization               :        1.140 s           1.142 s
  | Boundary condition initialization          :        0.000 s           0.000 s
  | Integration                                :        0.698 s           0.699 s
  | Solution of K.-S. eqns.                    :        0.004 s           0.004 s
  | Grid partitioning                          :        0.112 s           0.113 s
  | Preloading free-atom quantities on grid    :        0.002 s           0.002 s
  | Free-atom superposition energy             :        0.084 s           0.084 s
  | Total energy evaluation                    :        0.000 s           0.000 s

  Partial memory accounting:
  | Current value for overall tracked memory usage on task 0  :           0.165 MB
  | Peak value for overall tracked memory usage on task 0     :           0.678 MB after allocating wave
  | Largest tracked array allocation on task 0 so far         :           0.132 MB  when allocating H_times_psi
  Note:  These values currently only include a subset of arrays which are explicitly tracked.
  The "true" memory usage will be greater.
------------------------------------------------------------

------------------------------------------------------------
          Begin self-consistency iteration #    1

  Date     :  20200710, Time     :  152015.290
------------------------------------------------------------
  Evaluating new KS density.
  Integration grid: deviation in total charge (<rho> - N_e) =   7.105427E-15
  Pulay mixing of updated and previous charge densities.

  Evaluating partitioned Hartree potential by multipole expansion.
  | Analytical far-field extrapolation by fixed multipoles:
  | Hartree multipole sum: apparent total charge =  -0.106452E-03
  Summing up the Hartree potential.
  Time summed over all CPUs for potential: real work        0.279 s, elapsed        0.279 s
  | RMS charge density error from multipole expansion :   0.588668E-02

  Integrating Hamiltonian matrix: batch-based integration.
  Time summed over all CPUs for integration: real work        0.488 s, elapsed        0.488 s

  Updating Kohn-Sham eigenvalues and eigenvectors using ELSI and the ELPA eigensolver.
  Finished Cholesky decomposition
  | Time :     0.000 s
  Finished transformation to standard eigenproblem
  | Time :     0.000 s
  Starting LAPACK eigensolver
  Finished solving standard eigenproblem
  | Time :     0.001 s
  Finished back-transformation of eigenvectors
  | Time :     0.000 s

  Obtaining occupation numbers and chemical potential using ELSI.
  | Chemical potential (Fermi level):    -7.97097007eV
  Writing Kohn-Sham eigenvalues.

  State    Occupation    Eigenvalue [Ha]    Eigenvalue [eV]
      1       2.00000         -18.908217         -514.51876
      2       2.00000         -18.839493         -512.64870
      3       2.00000         -14.093352         -383.49962
      4       2.00000         -10.117318         -275.30623
      5       2.00000         -10.061759         -273.79438
      6       2.00000         -10.032101         -272.98736
      7       2.00000          -1.140751          -31.04142
      8       2.00000          -1.033726          -28.12912
      9       2.00000          -0.920495          -25.04795
     10       2.00000          -0.793067          -21.58045
     11       2.00000          -0.709947          -19.31864
     12       2.00000          -0.639124          -17.39146
     13       2.00000          -0.563159          -15.32435
     14       2.00000          -0.543829          -14.79834
     15       2.00000          -0.538676          -14.65813
     16       2.00000          -0.506842          -13.79188
     17       2.00000          -0.492757          -13.40859
     18       2.00000          -0.474251          -12.90502
     19       2.00000          -0.447084          -12.16579
     20       2.00000          -0.438162          -11.92298
     21       2.00000          -0.417454          -11.35951
     22       2.00000          -0.373248          -10.15660
     23       2.00000          -0.344925           -9.38588
     24       2.00000          -0.305346           -8.30890
     25       0.00000          -0.121337           -3.30174
     26       0.00000          -0.033721           -0.91760
     27       0.00000           0.000613            0.01667
     28       0.00000           0.015702            0.42727
     29       0.00000           0.030631            0.83350
     30       0.00000           0.045999            1.25169
     31       0.00000           0.058911            1.60305
     32       0.00000           0.073342            1.99575
     33       0.00000           0.075930            2.06616
     34       0.00000           0.102368            2.78557
     35       0.00000           0.141694            3.85569
     36       0.00000           0.160012            4.35415
     37       0.00000           0.182108            4.95541
     38       0.00000           0.226607            6.16629
     39       0.00000           0.232880            6.33699
     40       0.00000           0.278337            7.57393
     41       0.00000           0.282107            7.67652
     42       0.00000           0.313655            8.53498
     43       0.00000           0.328110            8.92833
     44       0.00000           0.337276            9.17774
     45       0.00000           0.382224           10.40085
     46       0.00000           0.390747           10.63276
     47       0.00000           0.412251           11.21793
     48       0.00000           0.444507           12.09566
     49       0.00000           0.457407           12.44668
     50       0.00000           0.493363           13.42508
     51       0.00000           0.527873           14.36416
     52       0.00000           0.574226           15.62549
     53       0.00000           0.622578           16.94122

  Highest occupied state (VBM) at     -8.30890048 eV
  | Occupation number:      2.00000000

  Lowest unoccupied state (CBM) at    -3.30173906 eV
  | Occupation number:      0.00000000

  Overall HOMO-LUMO gap:      5.00716142 eV.

  Total energy components:
  | Sum of eigenvalues            :        -185.47016956 Ha       -5046.90009705 eV
  | XC energy correction          :         -42.11967773 Ha       -1146.13474566 eV
  | XC potential correction       :          54.15071528 Ha        1473.51593446 eV
  | Free-atom electrostatic energy:        -146.84608451 Ha       -3995.88526800 eV
  | Hartree energy correction     :          -3.29971405 Ha         -89.78978789 eV
  | vdW energy correction         :           0.00000000 Ha           0.00000000 eV
  | Entropy correction            :           0.00000000 Ha           0.00000000 eV
  | ---------------------------
  | Total energy                  :        -323.58493057 Ha       -8805.19396415 eV
  | Total energy, T -> 0          :        -323.58493057 Ha       -8805.19396415 eV  <-- do not rely on this value for anything but (periodic) metals
  | Electronic free energy        :        -323.58493057 Ha       -8805.19396415 eV

  Derived energy quantities:
  | Kinetic energy                :         322.28486680 Ha        8769.81742912 eV
  | Electrostatic energy          :        -603.75011965 Ha      -16428.87664760 eV
  | Energy correction for multipole
  | error in Hartree potential    :           0.01206662 Ha           0.32834947 eV
  | Sum of eigenvalues per atom                           :        -388.22308439 eV
  | Total energy (T->0) per atom                          :        -677.32261263 eV  <-- do not rely on this value for anything but (periodic) metals
  | Electronic free energy per atom                       :        -677.32261263 eV

  Self-consistency convergence accuracy:
  | Change of charge density      :  0.5832E+00
  | Change of sum of eigenvalues  :  0.9202E+02 eV
  | Change of total energy        :  0.4911E+01 eV

  End self-consistency iteration #     1       :  max(cpu_time)    wall_clock(cpu1)
  | Time for this iteration                    :        1.175 s           1.177 s
  | Charge density update                      :        0.391 s           0.391 s
  | Density mixing                             :        0.005 s           0.006 s
  | Hartree multipole update                   :        0.009 s           0.008 s
  | Hartree multipole summation                :        0.280 s           0.281 s
  | Integration                                :        0.488 s           0.488 s
  | Solution of K.-S. eqns.                    :        0.002 s           0.002 s
  | Total energy evaluation                    :        0.000 s           0.001 s

  Partial memory accounting:
  | Current value for overall tracked memory usage on task 0  :           0.165 MB
  | Peak value for overall tracked memory usage on task 0     :           0.695 MB after allocating gradient_basis_wave
  | Largest tracked array allocation on task 0 so far         :           0.397 MB  when allocating gradient_basis_wave
  Note:  These values currently only include a subset of arrays which are explicitly tracked.
  The "true" memory usage will be greater.
------------------------------------------------------------

------------------------------------------------------------
          Begin self-consistency iteration #    2

  Date     :  20200710, Time     :  152016.467
------------------------------------------------------------
  Evaluating new KS density.
  Integration grid: deviation in total charge (<rho> - N_e) =   3.552714E-14
  Pulay mixing of updated and previous charge densities.

  Evaluating partitioned Hartree potential by multipole expansion.
  | Analytical far-field extrapolation by fixed multipoles:
  | Hartree multipole sum: apparent total charge =  -0.241229E-03
  Summing up the Hartree potential.
  Time summed over all CPUs for potential: real work        0.279 s, elapsed        0.279 s
  | RMS charge density error from multipole expansion :   0.140554E-01

  Integrating Hamiltonian matrix: batch-based integration.
  Time summed over all CPUs for integration: real work        0.488 s, elapsed        0.488 s

  Updating Kohn-Sham eigenvalues and eigenvectors using ELSI and the ELPA eigensolver.
  Finished Cholesky decomposition
  | Time :     0.000 s
  Finished transformation to standard eigenproblem
  | Time :     0.000 s
  Starting LAPACK eigensolver
  Finished solving standard eigenproblem
  | Time :     0.002 s
  Finished back-transformation of eigenvectors
  | Time :     0.000 s

  Obtaining occupation numbers and chemical potential using ELSI.
  | Chemical potential (Fermi level):    -2.55140442eV
  Highest occupied state (VBM) at     -6.28284866 eV
  | Occupation number:      2.00000000

  Lowest unoccupied state (CBM) at    -2.09162953 eV
  | Occupation number:      0.00000000

  Overall HOMO-LUMO gap:      4.19121913 eV.

  Checking to see if s.c.f. parameters should be adjusted.

  Total energy components:
  | Sum of eigenvalues            :        -181.87843915 Ha       -4949.16413991 eV
  | XC energy correction          :         -42.48242247 Ha       -1156.00553243 eV
  | XC potential correction       :          54.62096857 Ha        1486.31217752 eV
  | Free-atom electrostatic energy:        -146.84608451 Ha       -3995.88526800 eV
  | Hartree energy correction     :          -6.92100493 Ha        -188.33012628 eV
  | vdW energy correction         :           0.00000000 Ha           0.00000000 eV
  | Entropy correction            :           0.00000000 Ha           0.00000000 eV
  | ---------------------------
  | Total energy                  :        -323.50698250 Ha       -8803.07288911 eV
  | Total energy, T -> 0          :        -323.50698250 Ha       -8803.07288911 eV  <-- do not rely on this value for anything but (periodic) metals
  | Electronic free energy        :        -323.50698250 Ha       -8803.07288911 eV

  Derived energy quantities:
  | Kinetic energy                :         323.61849619 Ha        8806.10733116 eV
  | Electrostatic energy          :        -604.64305621 Ha      -16453.17468784 eV
  | Energy correction for multipole
  | error in Hartree potential    :           0.02675865 Ha           0.72813985 eV
  | Sum of eigenvalues per atom                           :        -380.70493384 eV
  | Total energy (T->0) per atom                          :        -677.15945301 eV  <-- do not rely on this value for anything but (periodic) metals
  | Electronic free energy per atom                       :        -677.15945301 eV

  Self-consistency convergence accuracy:
  | Change of charge density      :  0.3646E+00
  | Change of sum of eigenvalues  :  0.9774E+02 eV
  | Change of total energy        :  0.2121E+01 eV

  End self-consistency iteration #     2       :  max(cpu_time)    wall_clock(cpu1)
  | Time for this iteration                    :        1.168 s           1.169 s
  | Charge density update                      :        0.382 s           0.383 s
  | Density mixing                             :        0.007 s           0.007 s
  | Hartree multipole update                   :        0.009 s           0.008 s
  | Hartree multipole summation                :        0.280 s           0.280 s
  | Integration                                :        0.488 s           0.488 s
  | Solution of K.-S. eqns.                    :        0.002 s           0.002 s
  | Total energy evaluation                    :        0.000 s           0.001 s

  Partial memory accounting:
  | Current value for overall tracked memory usage on task 0  :           0.166 MB
  | Peak value for overall tracked memory usage on task 0     :           0.695 MB after allocating gradient_basis_wave
  | Largest tracked array allocation on task 0 so far         :           0.397 MB  when allocating gradient_basis_wave
  Note:  These values currently only include a subset of arrays which are explicitly tracked.
  The "true" memory usage will be greater.
------------------------------------------------------------

------------------------------------------------------------
          Begin self-consistency iteration #    3

  Date     :  20200710, Time     :  152017.636
------------------------------------------------------------
  Evaluating new KS density.
  Integration grid: deviation in total charge (<rho> - N_e) =  -5.684342E-14
  Pulay mixing of updated and previous charge densities.

  Evaluating partitioned Hartree potential by multipole expansion.
  | Analytical far-field extrapolation by fixed multipoles:
  | Hartree multipole sum: apparent total charge =  -0.332239E-03
  Summing up the Hartree potential.
  Time summed over all CPUs for potential: real work        0.279 s, elapsed        0.279 s
  | RMS charge density error from multipole expansion :   0.222117E-01

  Integrating Hamiltonian matrix: batch-based integration.
  Time summed over all CPUs for integration: real work        0.488 s, elapsed        0.488 s

  Updating Kohn-Sham eigenvalues and eigenvectors using ELSI and the ELPA eigensolver.
  Finished Cholesky decomposition
  | Time :     0.000 s
  Finished transformation to standard eigenproblem
  | Time :     0.000 s
  Starting LAPACK eigensolver
  Finished solving standard eigenproblem
  | Time :     0.001 s
  Finished back-transformation of eigenvectors
  | Time :     0.000 s

  Obtaining occupation numbers and chemical potential using ELSI.
  | Chemical potential (Fermi level):    -1.85684436eV
  Highest occupied state (VBM) at     -5.60717529 eV
  | Occupation number:      2.00000000

  Lowest unoccupied state (CBM) at    -1.40415334 eV
  | Occupation number:      0.00000000

  Overall HOMO-LUMO gap:      4.20302196 eV.

  Total energy components:
  | Sum of eigenvalues            :        -180.58255710 Ha       -4913.90139522 eV
  | XC energy correction          :         -42.63304755 Ha       -1160.10424925 eV
  | XC potential correction       :          54.81303894 Ha        1491.53867811 eV
  | Free-atom electrostatic energy:        -146.84608451 Ha       -3995.88526800 eV
  | Hartree energy correction     :          -8.24611160 Ha        -224.38811327 eV
  | vdW energy correction         :           0.00000000 Ha           0.00000000 eV
  | Entropy correction            :           0.00000000 Ha           0.00000000 eV
  | ---------------------------
  | Total energy                  :        -323.49476182 Ha       -8802.74034763 eV
  | Total energy, T -> 0          :        -323.49476182 Ha       -8802.74034763 eV  <-- do not rely on this value for anything but (periodic) metals
  | Electronic free energy        :        -323.49476182 Ha       -8802.74034763 eV

  Derived energy quantities:
  | Kinetic energy                :         323.18980348 Ha        8794.44200888 eV
  | Electrostatic energy          :        -604.05151775 Ha      -16437.07810726 eV
  | Energy correction for multipole
  | error in Hartree potential    :           0.03791970 Ha           1.03184749 eV
  | Sum of eigenvalues per atom                           :        -377.99241502 eV
  | Total energy (T->0) per atom                          :        -677.13387289 eV  <-- do not rely on this value for anything but (periodic) metals
  | Electronic free energy per atom                       :        -677.13387289 eV

  Self-consistency convergence accuracy:
  | Change of charge density      :  0.2026E+00
  | Change of sum of eigenvalues  :  0.3526E+02 eV
  | Change of total energy        :  0.3325E+00 eV

  End self-consistency iteration #     3       :  max(cpu_time)    wall_clock(cpu1)
  | Time for this iteration                    :        1.170 s           1.171 s
  | Charge density update                      :        0.383 s           0.383 s
  | Density mixing                             :        0.008 s           0.008 s
  | Hartree multipole update                   :        0.009 s           0.009 s
  | Hartree multipole summation                :        0.280 s           0.280 s
  | Integration                                :        0.488 s           0.488 s
  | Solution of K.-S. eqns.                    :        0.002 s           0.002 s
  | Total energy evaluation                    :        0.000 s           0.001 s

  Partial memory accounting:
  | Current value for overall tracked memory usage on task 0  :           0.166 MB
  | Peak value for overall tracked memory usage on task 0     :           0.695 MB after allocating gradient_basis_wave
  | Largest tracked array allocation on task 0 so far         :           0.397 MB  when allocating gradient_basis_wave
  Note:  These values currently only include a subset of arrays which are explicitly tracked.
  The "true" memory usage will be greater.
------------------------------------------------------------

------------------------------------------------------------
          Begin self-consistency iteration #    4

  Date     :  20200710, Time     :  152018.807
------------------------------------------------------------
  Evaluating new KS density.
  Integration grid: deviation in total charge (<rho> - N_e) =   4.973799E-14
  Pulay mixing of updated and previous charge densities.

  Evaluating partitioned Hartree potential by multipole expansion.
  | Analytical far-field extrapolation by fixed multipoles:
  | Hartree multipole sum: apparent total charge =  -0.360750E-03
  Summing up the Hartree potential.
  Time summed over all CPUs for potential: real work        0.280 s, elapsed        0.280 s
  | RMS charge density error from multipole expansion :   0.255836E-01

  Integrating Hamiltonian matrix: batch-based integration.
  Time summed over all CPUs for integration: real work        0.488 s, elapsed        0.488 s

  Updating Kohn-Sham eigenvalues and eigenvectors using ELSI and the ELPA eigensolver.
  Finished Cholesky decomposition
  | Time :     0.000 s
  Finished transformation to standard eigenproblem
  | Time :     0.000 s
  Starting LAPACK eigensolver
  Finished solving standard eigenproblem
  | Time :     0.002 s
  Finished back-transformation of eigenvectors
  | Time :     0.000 s

  Obtaining occupation numbers and chemical potential using ELSI.
  | Chemical potential (Fermi level):    -1.75708808eV
  Highest occupied state (VBM) at     -5.42782713 eV
  | Occupation number:      2.00000000

  Lowest unoccupied state (CBM) at    -1.32922649 eV
  | Occupation number:      0.00000000

  Overall HOMO-LUMO gap:      4.09860064 eV.

  Total energy components:
  | Sum of eigenvalues            :        -180.45002166 Ha       -4910.29492252 eV
  | XC energy correction          :         -42.66924125 Ha       -1161.08912991 eV
  | XC potential correction       :          54.85857582 Ha        1492.77779965 eV
  | Free-atom electrostatic energy:        -146.84608451 Ha       -3995.88526800 eV
  | Hartree energy correction     :          -8.38714164 Ha        -228.22573606 eV
  | vdW energy correction         :           0.00000000 Ha           0.00000000 eV
  | Entropy correction            :           0.00000000 Ha           0.00000000 eV
  | ---------------------------
  | Total energy                  :        -323.49391325 Ha       -8802.71725684 eV
  | Total energy, T -> 0          :        -323.49391325 Ha       -8802.71725684 eV  <-- do not rely on this value for anything but (periodic) metals
  | Electronic free energy        :        -323.49391325 Ha       -8802.71725684 eV

  Derived energy quantities:
  | Kinetic energy                :         322.80919758 Ha        8784.08519556 eV
  | Electrostatic energy          :        -603.63386958 Ha      -16425.71332249 eV
  | Energy correction for multipole
  | error in Hartree potential    :           0.04200919 Ha           1.14312828 eV
  | Sum of eigenvalues per atom                           :        -377.71499404 eV
  | Total energy (T->0) per atom                          :        -677.13209668 eV  <-- do not rely on this value for anything but (periodic) metals
  | Electronic free energy per atom                       :        -677.13209668 eV

  Self-consistency convergence accuracy:
  | Change of charge density      :  0.6312E-01
  | Change of sum of eigenvalues  :  0.3606E+01 eV
  | Change of total energy        :  0.2309E-01 eV

  End self-consistency iteration #     4       :  max(cpu_time)    wall_clock(cpu1)
  | Time for this iteration                    :        1.171 s           1.172 s
  | Charge density update                      :        0.382 s           0.383 s
  | Density mixing                             :        0.009 s           0.009 s
  | Hartree multipole update                   :        0.009 s           0.009 s
  | Hartree multipole summation                :        0.280 s           0.280 s
  | Integration                                :        0.488 s           0.489 s
  | Solution of K.-S. eqns.                    :        0.002 s           0.002 s
  | Total energy evaluation                    :        0.000 s           0.000 s

  Partial memory accounting:
  | Current value for overall tracked memory usage on task 0  :           0.166 MB
  | Peak value for overall tracked memory usage on task 0     :           0.696 MB after allocating gradient_basis_wave
  | Largest tracked array allocation on task 0 so far         :           0.397 MB  when allocating gradient_basis_wave
  Note:  These values currently only include a subset of arrays which are explicitly tracked.
  The "true" memory usage will be greater.
------------------------------------------------------------

------------------------------------------------------------
          Begin self-consistency iteration #    5

  Date     :  20200710, Time     :  152019.980
------------------------------------------------------------
  Evaluating new KS density.
  Integration grid: deviation in total charge (<rho> - N_e) =   2.131628E-14
  Pulay mixing of updated and previous charge densities.

  Evaluating partitioned Hartree potential by multipole expansion.
  | Analytical far-field extrapolation by fixed multipoles:
  | Hartree multipole sum: apparent total charge =  -0.354793E-03
  Summing up the Hartree potential.
  Time summed over all CPUs for potential: real work        0.279 s, elapsed        0.279 s
  | RMS charge density error from multipole expansion :   0.253336E-01

  Integrating Hamiltonian matrix: batch-based integration.
  Time summed over all CPUs for integration: real work        0.488 s, elapsed        0.488 s

  Updating Kohn-Sham eigenvalues and eigenvectors using ELSI and the ELPA eigensolver.
  Finished Cholesky decomposition
  | Time :     0.000 s
  Finished transformation to standard eigenproblem
  | Time :     0.000 s
  Starting LAPACK eigensolver
  Finished solving standard eigenproblem
  | Time :     0.002 s
  Finished back-transformation of eigenvectors
  | Time :     0.000 s

  Obtaining occupation numbers and chemical potential using ELSI.
  | Chemical potential (Fermi level):    -1.81105961eV
  Highest occupied state (VBM) at     -5.51235687 eV
  | Occupation number:      2.00000000

  Lowest unoccupied state (CBM) at    -1.40739704 eV
  | Occupation number:      0.00000000

  Overall HOMO-LUMO gap:      4.10495982 eV.

  Total energy components:
  | Sum of eigenvalues            :        -180.63109940 Ha       -4915.22229832 eV
  | XC energy correction          :         -42.64675151 Ha       -1160.47715301 eV
  | XC potential correction       :          54.82941464 Ha        1491.98428376 eV
  | Free-atom electrostatic energy:        -146.84608451 Ha       -3995.88526800 eV
  | Hartree energy correction     :          -8.19910247 Ha        -223.10892988 eV
  | vdW energy correction         :           0.00000000 Ha           0.00000000 eV
  | Entropy correction            :           0.00000000 Ha           0.00000000 eV
  | ---------------------------
  | Total energy                  :        -323.49362325 Ha       -8802.70936544 eV
  | Total energy, T -> 0          :        -323.49362325 Ha       -8802.70936544 eV  <-- do not rely on this value for anything but (periodic) metals
  | Electronic free energy        :        -323.49362325 Ha       -8802.70936544 eV

  Derived energy quantities:
  | Kinetic energy                :         322.70897765 Ha        8781.35807255 eV
  | Electrostatic energy          :        -603.55584939 Ha      -16423.59028499 eV
  | Energy correction for multipole
  | error in Hartree potential    :           0.04138562 Ha           1.12616008 eV
  | Sum of eigenvalues per atom                           :        -378.09402295 eV
  | Total energy (T->0) per atom                          :        -677.13148965 eV  <-- do not rely on this value for anything but (periodic) metals
  | Electronic free energy per atom                       :        -677.13148965 eV

  Self-consistency convergence accuracy:
  | Change of charge density      :  0.2059E-01
  | Change of sum of eigenvalues  : -0.4927E+01 eV
  | Change of total energy        :  0.7891E-02 eV

  End self-consistency iteration #     5       :  max(cpu_time)    wall_clock(cpu1)
  | Time for this iteration                    :        1.172 s           1.173 s
  | Charge density update                      :        0.383 s           0.383 s
  | Density mixing                             :        0.011 s           0.010 s
  | Hartree multipole update                   :        0.009 s           0.009 s
  | Hartree multipole summation                :        0.280 s           0.280 s
  | Integration                                :        0.488 s           0.488 s
  | Solution of K.-S. eqns.                    :        0.002 s           0.002 s
  | Total energy evaluation                    :        0.000 s           0.000 s

  Partial memory accounting:
  | Current value for overall tracked memory usage on task 0  :           0.166 MB
  | Peak value for overall tracked memory usage on task 0     :           0.696 MB after allocating gradient_basis_wave
  | Largest tracked array allocation on task 0 so far         :           0.397 MB  when allocating gradient_basis_wave
  Note:  These values currently only include a subset of arrays which are explicitly tracked.
  The "true" memory usage will be greater.
------------------------------------------------------------

------------------------------------------------------------
          Begin self-consistency iteration #    6

  Date     :  20200710, Time     :  152021.153
------------------------------------------------------------
  Evaluating new KS density.
  Integration grid: deviation in total charge (<rho> - N_e) =  -3.552714E-14
  Pulay mixing of updated and previous charge densities.

  Evaluating partitioned Hartree potential by multipole expansion.
  | Analytical far-field extrapolation by fixed multipoles:
  | Hartree multipole sum: apparent total charge =  -0.357077E-03
  Summing up the Hartree potential.
  Time summed over all CPUs for potential: real work        0.279 s, elapsed        0.279 s
  | RMS charge density error from multipole expansion :   0.257339E-01

  Integrating Hamiltonian matrix: batch-based integration.
  Time summed over all CPUs for integration: real work        0.488 s, elapsed        0.488 s

  Updating Kohn-Sham eigenvalues and eigenvectors using ELSI and the ELPA eigensolver.
  Finished Cholesky decomposition
  | Time :     0.000 s
  Finished transformation to standard eigenproblem
  | Time :     0.000 s
  Starting LAPACK eigensolver
  Finished solving standard eigenproblem
  | Time :     0.001 s
  Finished back-transformation of eigenvectors
  | Time :     0.000 s

  Obtaining occupation numbers and chemical potential using ELSI.
  | Chemical potential (Fermi level):    -1.81483732eV
  Highest occupied state (VBM) at     -5.49095626 eV
  | Occupation number:      2.00000000

  Lowest unoccupied state (CBM) at    -1.42918066 eV
  | Occupation number:      0.00000000

  Overall HOMO-LUMO gap:      4.06177560 eV.

  Total energy components:
  | Sum of eigenvalues            :        -180.65106894 Ha       -4915.76569729 eV
  | XC energy correction          :         -42.64365258 Ha       -1160.39282697 eV
  | XC potential correction       :          54.82537174 Ha        1491.87427071 eV
  | Free-atom electrostatic energy:        -146.84608451 Ha       -3995.88526800 eV
  | Hartree energy correction     :          -8.17813836 Ha        -222.53846733 eV
  | vdW energy correction         :           0.00000000 Ha           0.00000000 eV
  | Entropy correction            :           0.00000000 Ha           0.00000000 eV
  | ---------------------------
  | Total energy                  :        -323.49357266 Ha       -8802.70798888 eV
  | Total energy, T -> 0          :        -323.49357266 Ha       -8802.70798888 eV  <-- do not rely on this value for anything but (periodic) metals
  | Electronic free energy        :        -323.49357266 Ha       -8802.70798888 eV

  Derived energy quantities:
  | Kinetic energy                :         322.62182537 Ha        8778.98653815 eV
  | Electrostatic energy          :        -603.47174544 Ha      -16421.30170006 eV
  | Energy correction for multipole
  | error in Hartree potential    :           0.04167775 Ha           1.13410924 eV
  | Sum of eigenvalues per atom                           :        -378.13582287 eV
  | Total energy (T->0) per atom                          :        -677.13138376 eV  <-- do not rely on this value for anything but (periodic) metals
  | Electronic free energy per atom                       :        -677.13138376 eV

  Self-consistency convergence accuracy:
  | Change of charge density      :  0.1052E-01
  | Change of sum of eigenvalues  : -0.5434E+00 eV
  | Change of total energy        :  0.1377E-02 eV

  End self-consistency iteration #     6       :  max(cpu_time)    wall_clock(cpu1)
  | Time for this iteration                    :        1.174 s           1.182 s
  | Charge density update                      :        0.383 s           0.390 s
  | Density mixing                             :        0.012 s           0.012 s
  | Hartree multipole update                   :        0.009 s           0.009 s
  | Hartree multipole summation                :        0.280 s           0.280 s
  | Integration                                :        0.488 s           0.489 s
  | Solution of K.-S. eqns.                    :        0.002 s           0.002 s
  | Total energy evaluation                    :        0.000 s           0.000 s

  Partial memory accounting:
  | Current value for overall tracked memory usage on task 0  :           0.166 MB
  | Peak value for overall tracked memory usage on task 0     :           0.696 MB after allocating gradient_basis_wave
  | Largest tracked array allocation on task 0 so far         :           0.397 MB  when allocating gradient_basis_wave
  Note:  These values currently only include a subset of arrays which are explicitly tracked.
  The "true" memory usage will be greater.
------------------------------------------------------------

------------------------------------------------------------
          Begin self-consistency iteration #    7

  Date     :  20200710, Time     :  152022.336
------------------------------------------------------------
  Evaluating new KS density.
  Integration grid: deviation in total charge (<rho> - N_e) =   7.105427E-15
  Pulay mixing of updated and previous charge densities.

  Evaluating partitioned Hartree potential by multipole expansion.
  | Analytical far-field extrapolation by fixed multipoles:
  | Hartree multipole sum: apparent total charge =  -0.357962E-03
  Summing up the Hartree potential.
  Time summed over all CPUs for potential: real work        0.279 s, elapsed        0.279 s
  | RMS charge density error from multipole expansion :   0.258785E-01

  Integrating Hamiltonian matrix: batch-based integration.
  Time summed over all CPUs for integration: real work        0.488 s, elapsed        0.488 s

  Updating Kohn-Sham eigenvalues and eigenvectors using ELSI and the ELPA eigensolver.
  Finished Cholesky decomposition
  | Time :     0.000 s
  Finished transformation to standard eigenproblem
  | Time :     0.000 s
  Starting LAPACK eigensolver
  Finished solving standard eigenproblem
  | Time :     0.002 s
  Finished back-transformation of eigenvectors
  | Time :     0.000 s

[...]
  |   Hirshfeld dipole moment :      0.06308802
  |   Hirshfeld second moments:      0.00302919      -0.02397640      -0.01838432
  |                                 -0.02397640      -0.01021221       0.01282444
  |                                 -0.01838432       0.01282444      -0.01739627
  ----------------------------------------------------------------------
  | Atom    12: O
  |   Hirshfeld charge        :     -0.14025156
  |   Free atom volume        :     23.61338643
  |   Hirshfeld volume        :     20.54011180
  |   Hirshfeld dipole vector :      0.02917231       0.00432166       0.01987920
  |   Hirshfeld dipole moment :      0.03556519
  |   Hirshfeld second moments:      0.05301702      -0.01234426      -0.01083666
  |                                 -0.01234426       0.10657535       0.00109731
  |                                 -0.01083666       0.00109731       0.04430526
  ----------------------------------------------------------------------
  | Atom    13: H
  |   Hirshfeld charge        :      0.18132933
  |   Free atom volume        :      9.95071624
  |   Hirshfeld volume        :      6.14988108
  |   Hirshfeld dipole vector :      0.04884304      -0.11080458       0.00871880
  |   Hirshfeld dipole moment :      0.12140558
  |   Hirshfeld second moments:      0.11832503       0.00192641      -0.01117752
  |                                  0.00192641       0.12637574       0.00026961
  |                                 -0.01117752       0.00026961       0.09717037
  ----------------------------------------------------------------------


  Total energy components:
  | Sum of eigenvalues            :        -180.64357007 Ha       -4915.56164264 eV
  | XC energy correction          :         -42.64114406 Ha       -1160.32456657 eV
  | XC potential correction       :          54.82220641 Ha        1491.78813778 eV
  | Free-atom electrostatic energy:        -146.84608451 Ha       -3995.88526800 eV
  | Hartree energy correction     :          -8.18495891 Ha        -222.72406389 eV
  | vdW energy correction         :          -0.00325254 Ha          -0.08850608 eV
  | Entropy correction            :           0.00000000 Ha           0.00000000 eV
  | ---------------------------
  | Total energy                  :        -323.49680368 Ha       -8802.79590940 eV
  | Total energy, T -> 0          :        -323.49680368 Ha       -8802.79590940 eV  <-- do not rely on this value for anything but (periodic) metals
  | Electronic free energy        :        -323.49680368 Ha       -8802.79590940 eV

  Derived energy quantities:
  | Kinetic energy                :         322.58276139 Ha        8777.92355320 eV
  | Electrostatic energy          :        -603.43516847 Ha      -16420.30638995 eV
  | Energy correction for multipole
  | error in Hartree potential    :           0.04174384 Ha           1.13590773 eV
  | Sum of eigenvalues per atom                           :        -378.12012636 eV
  | Total energy (T->0) per atom                          :        -677.13814688 eV  <-- do not rely on this value for anything but (periodic) metals
  | Electronic free energy per atom                       :        -677.13814688 eV

  atomic forces [eV/Ang]:
  -----------------------
  atom #    1
   Hellmann-Feynman              : -0.309604E+00 -0.114173E+00  0.811670E+00
   Ionic forces                  :  0.000000E+00  0.000000E+00  0.000000E+00
   Multipole                     :  0.146617E-01  0.336308E+00 -0.270780E+00
   Pulay + GGA                   : -0.806833E+00 -0.138122E+00 -0.119929E+01
   Van der Waals                 :  0.261232E-02  0.366213E-02 -0.189704E-02
   ----------------------------------------------------------------
   Total forces(   1)            : -0.109916E+01  0.876755E-01 -0.660293E+00
  atom #    2
   Hellmann-Feynman              :  0.352805E+00 -0.115374E+00  0.127209E+00
   Ionic forces                  :  0.000000E+00  0.000000E+00  0.000000E+00
   Multipole                     :  0.171006E+00  0.465105E-01 -0.443490E-01
   Pulay + GGA                   : -0.147896E+00  0.402800E-01 -0.136786E-01
   Van der Waals                 :  0.600895E-02 -0.296205E-02 -0.523516E-02
   ----------------------------------------------------------------
   Total forces(   2)            :  0.381924E+00 -0.315459E-01  0.639466E-01
  atom #    3
   Hellmann-Feynman              :  0.837956E+01  0.451414E+01 -0.526191E+01
   Ionic forces                  :  0.000000E+00  0.000000E+00  0.000000E+00
   Multipole                     : -0.155548E+00  0.175864E+00 -0.121331E+01
   Pulay + GGA                   : -0.746228E+01 -0.441176E+01  0.704082E+01
   Van der Waals                 :  0.332827E-02 -0.852659E-02 -0.623290E-02
   ----------------------------------------------------------------
   Total forces(   3)            :  0.765054E+00  0.269713E+00  0.559356E+00
  atom #    4
   Hellmann-Feynman              : -0.228175E+00  0.278638E-01 -0.111261E+00
   Ionic forces                  :  0.000000E+00  0.000000E+00  0.000000E+00
   Multipole                     : -0.523529E-01 -0.686139E-01 -0.762950E-01
   Pulay + GGA                   :  0.659961E-01  0.216774E+00  0.571748E-01
   Van der Waals                 : -0.301090E-02  0.198798E-02  0.174435E-02
   ----------------------------------------------------------------
   Total forces(   4)            : -0.217543E+00  0.178012E+00 -0.128637E+00
  atom #    5
   Hellmann-Feynman              : -0.372160E+00 -0.139286E+00 -0.167950E-01
   Ionic forces                  :  0.000000E+00  0.000000E+00  0.000000E+00
   Multipole                     : -0.896469E-01  0.312108E-01 -0.575232E-01
   Pulay + GGA                   :  0.231009E+00 -0.692634E-01 -0.384264E-01
   Van der Waals                 : -0.163506E-02 -0.469617E-02 -0.752273E-02
   ----------------------------------------------------------------
   Total forces(   5)            : -0.232433E+00 -0.182034E+00 -0.120267E+00
  atom #    6
   Hellmann-Feynman              :  0.965349E-01 -0.353559E+00  0.166674E+00
   Ionic forces                  :  0.000000E+00  0.000000E+00  0.000000E+00
   Multipole                     : -0.116267E+00  0.596767E+00  0.281548E+00
   Pulay + GGA                   :  0.314641E+00 -0.620448E+00 -0.415864E+00
   Van der Waals                 : -0.223423E-02  0.459026E-02 -0.315557E-02
   ----------------------------------------------------------------
   Total forces(   6)            :  0.292675E+00 -0.372650E+00  0.292024E-01
  atom #    7
   Hellmann-Feynman              : -0.237771E+00 -0.653343E-01 -0.422450E-01
   Ionic forces                  :  0.000000E+00  0.000000E+00  0.000000E+00
   Multipole                     : -0.120282E+00  0.490866E-01  0.344131E-01
   Pulay + GGA                   :  0.108195E+00  0.532738E-02  0.270500E-01
   Van der Waals                 : -0.243693E-02  0.339253E-02  0.769943E-02
   ----------------------------------------------------------------
   Total forces(   7)            : -0.252295E+00 -0.752776E-02  0.269175E-01
  atom #    8
   Hellmann-Feynman              :  0.691655E-01 -0.315372E-01  0.139316E+00
   Ionic forces                  :  0.000000E+00  0.000000E+00  0.000000E+00
   Multipole                     :  0.114895E-01  0.625501E-01  0.124325E+00
   Pulay + GGA                   : -0.465216E-01 -0.401287E-01 -0.110229E+00
   Van der Waals                 : -0.299935E-02  0.114032E-01  0.964433E-03
   ----------------------------------------------------------------
   Total forces(   8)            :  0.311340E-01  0.228738E-02  0.154376E+00
  atom #    9
   Hellmann-Feynman              :  0.109712E+00  0.627085E-01 -0.170578E+00
   Ionic forces                  :  0.000000E+00  0.000000E+00  0.000000E+00
   Multipole                     :  0.190547E-01  0.128358E+00 -0.102658E-01
   Pulay + GGA                   : -0.349788E-01 -0.101936E+00  0.359150E-01
   Van der Waals                 : -0.195621E-03  0.679988E-02  0.747129E-02
   ----------------------------------------------------------------
   Total forces(   9)            :  0.935919E-01  0.959306E-01 -0.137458E+00
  atom #   10
   Hellmann-Feynman              :  0.279468E+01  0.604800E+01  0.149961E+01
   Ionic forces                  :  0.000000E+00  0.000000E+00  0.000000E+00
   Multipole                     : -0.515885E-03 -0.964728E-01  0.210137E+00
   Pulay + GGA                   : -0.189765E+01 -0.316600E+01 -0.209298E+00
   Van der Waals                 :  0.438063E-02 -0.157978E-01  0.475943E-02
   ----------------------------------------------------------------
   Total forces(  10)            :  0.900894E+00  0.276973E+01  0.150521E+01
  atom #   11
   Hellmann-Feynman              :  0.414985E+01 -0.228176E+01  0.141520E+02
   Ionic forces                  :  0.000000E+00  0.000000E+00  0.000000E+00
   Multipole                     :  0.116973E+00 -0.640922E+00  0.763315E+00
   Pulay + GGA                   : -0.307518E+01  0.322984E+01 -0.135832E+02
   Van der Waals                 : -0.367473E-02 -0.114479E-01  0.972695E-03
   ----------------------------------------------------------------
   Total forces(  11)            :  0.118797E+01  0.295715E+00  0.133313E+01
  atom #   12
   Hellmann-Feynman              : -0.101790E+02  0.123356E+01 -0.126310E+02
   Ionic forces                  :  0.000000E+00  0.000000E+00  0.000000E+00
   Multipole                     : -0.103013E+01 -0.983944E+00 -0.522796E+00
   Pulay + GGA                   :  0.102348E+02 -0.240070E+01  0.103093E+02
   Van der Waals                 : -0.170513E-03  0.731398E-02  0.392619E-02
   ----------------------------------------------------------------
   Total forces(  12)            : -0.974481E+00 -0.214378E+01 -0.284057E+01
  atom #   13
   Hellmann-Feynman              : -0.762106E+00 -0.121226E+01  0.298758E+00
   Ionic forces                  :  0.000000E+00  0.000000E+00  0.000000E+00
   Multipole                     :  0.498828E-01 -0.882679E-01  0.358976E-02
   Pulay + GGA                   : -0.164636E+00  0.330835E+00 -0.868064E-01
   Van der Waals                 :  0.271559E-04  0.428060E-02 -0.349443E-02
   ----------------------------------------------------------------
   Total forces(  13)            : -0.876832E+00 -0.965413E+00  0.212047E+00

  Timings for VdW correction (Tkatchenko-Scheffler 2009 or later):
  | CPU time:        0.088 s, Wall clock time:        0.089 s.
  Removing unitary transformations (pure translations, rotations) from forces on atoms.
  Atomic forces before filtering:
  | Net force on center of mass :   0.497794E-03 -0.387808E-02 -0.303944E-02 eV/A
  | Net torque on center of mass:  -0.350059E-02  0.412569E-02  0.555654E-02 eV
  Atomic forces after filtering:
  | Net force on center of mass :   0.000000E+00  0.178406E-15  0.446015E-15 eV/A
  | Net torque on center of mass:   0.108570E-14 -0.885079E-15 -0.755268E-15 eV

  Energy and forces in a compact form:
  | Total energy uncorrected      :         -0.880279590939508E+04 eV
  | Total energy corrected        :         -0.880279590939508E+04 eV  <-- do not rely on this value for anything but (periodic) metals
  | Electronic free energy        :         -0.880279590939508E+04 eV
  Total atomic forces (unitary forces cleaned) [eV/Ang]:
  |   1         -0.109914044473620E+01          0.879073869700088E-01         -0.659953266623767E+00
  |   2          0.381946838341596E+00         -0.314963031169528E-01          0.645077071988535E-01
  |   3          0.765361957054634E+00          0.270124728364252E+00          0.559599038730506E+00
  |   4         -0.217337940071028E+00          0.178473810237110E+00         -0.128498940046858E+00
  |   5         -0.232022322663494E+00         -0.181476561290703E+00         -0.120158475945533E+00
  |   6          0.292760378114953E+00         -0.372386286486804E+00          0.295310622772645E-01
  |   7         -0.252208155315103E+00         -0.708347723618907E-02          0.270271071047823E-01
  |   8          0.310129390681865E-01          0.241766019313598E-02          0.154778926101949E+00
  |   9          0.939293829894798E-01          0.961691344990046E-01         -0.136992574028102E+00
  |  10          0.900550555149243E+00          0.276997939637055E+01          0.150537856515795E+01
  |  11          0.118735177912241E+01          0.295831074847445E+00          0.133333825967171E+01
  |  12         -0.974828718396423E+00         -0.214336485758036E+01         -0.284060154694194E+01
  |  13         -0.877376248658251E+00         -0.965095705770495E+00          0.212044137343180E+00

  ------------------------------------ 
  Start decomposition of the XC Energy 
  ------------------------------------ 
  X and C from original XC functional choice 
  Hartree-Fock Energy :          0.000000000 Ha              0.000000000 eV
  X Energy            :        -41.040071799 Ha          -1116.757173620 eV
  C Energy            :         -1.601072262 Ha            -43.567392947 eV
  Total XC Energy     :        -42.641144061 Ha          -1160.324566567 eV
  ------------------------------------ 
  LDA X and C from self-consistent density 
  X Energy LDA        :        -37.259834587 Ha          -1013.891685362 eV
  C Energy LDA        :         -3.138807061 Ha            -85.411285796 eV
  ------------------------------------ 
  End decomposition of the XC Energy 
  ------------------------------------ 

------------------------------------------------------------

------------------------------------------------------------------------------
  Final output of selected total energy values:

  The following output summarizes some interesting total energy values
  at the end of a run (AFTER all relaxation, molecular dynamics, etc.).

  | Total energy of the DFT / Hartree-Fock s.c.f. calculation      :          -8802.795909395 eV
  | Final zero-broadening corrected energy (caution - metals only) :          -8802.795909395 eV
  | For reference only, the value of 1 Hartree used in FHI-aims is :             27.211384500 eV

  Before relying on these values, please be sure to understand exactly which
  total energy value is referred to by a given number. Different objects may
  all carry the same name 'total energy'. Definitions:

  Total energy of the DFT / Hartree-Fock s.c.f. calculation:
  | Note that this energy does not include ANY quantities calculated after the
  | s.c.f. cycle, in particular not ANY RPA, MP2, etc. many-body perturbation terms.

  Final zero-broadening corrected energy:
  | For metallic systems only, a broadening of the occupation numbers at the Fermi
  | level can be extrapolated back to zero broadening by an electron-gas inspired
  | formula. For all systems that are not real metals, this value can be
  | meaningless and should be avoided.

------------------------------------------------------------------------------
  Methods described in the following list of references were used in this FHI-aims run.
  If you publish the results, please make sure to cite these reference if they apply.
  FHI-aims is an academic code, and for our developers (often, Ph.D. students
  and postdocs), scientific credit in the community is essential.
  Thank you for helping us!

  For any use of FHI-aims, please cite:

    Volker Blum, Ralf Gehrke, Felix Hanke, Paula Havu, Ville Havu,
    Xinguo Ren, Karsten Reuter, and Matthias Scheffler
    'Ab initio molecular simulations with numeric atom-centered orbitals'
    Computer Physics Communications 180, 2175-2196 (2009)
    http://dx.doi.org/10.1016/j.cpc.2009.06.022


  The scalable eigensolver library ELPA was used in your run.
  ELPA is essential especially for large systems on hundreds or thousands of CPUs.
  For ELPA, please cite:

    Andreas Marek, Volker Blum, Rainer Johanni, Ville Havu, Bruno Lang,
    Thomas Auckenthaler, Alexander Heinecke, Hans-Joachim Bungartz, and Hermann Lederer,
    'The ELPA Library - Scalable Parallel Eigenvalue Solutions
    for Electronic Structure Theory and Computational Science'
    The Journal of Physics: Condensed Matter 26, 213201 (2014).
    http://dx.doi.org/10.1088/0953-8984/26/21/213201


  The ELSI infrastructure was used in your run to solve the Kohn-Sham electronic structure.
  Please check out http://elsi-interchange.org to learn more.
  If scalability is important for your project, please acknowledge ELSI by citing:

    V. W-z. Yu, F. Corsetti, A. Garcia, W. P. Huhn, M. Jacquelin, W. Jia,
    B. Lange, L. Lin, J. Lu, W. Mi, A. Seifitokaldani, A. Vazquez-Mayagoitia,
    C. Yang, H. Yang, and V. Blum
    'ELSI: A unified software interface for Kohn-Sham electronic structure solvers'
    Computer Physics Communications 222, 267-285 (2018).
    http://dx.doi.org/10.1016/j.cpc.2017.09.007


  For the real-space grid partitioning and parallelization used in this calculation, please cite:

    Ville Havu, Volker Blum, Paula Havu, and Matthias Scheffler,
    'Efficient O(N) integration for all-electron electronic structure calculation'
    'using numerically tabulated basis functions'
    Journal of Computational Physics 228, 8367-8379 (2009).
    http://dx.doi.org/10.1016/j.jcp.2009.08.008

  Of course, there are many other important community references, e.g., those cited in the
  above references. Our list is limited to references that describe implementations in the
  FHI-aims code. The reason is purely practical (length of this list) - please credit others as well.

------------------------------------------------------------
          Leaving FHI-aims.
          Date     :  20200710, Time     :  152036.521

          Computational steps:
          | Number of self-consistency cycles          :           16
          | Number of SCF (re)initializations          :            1

          Detailed time accounting                     :  max(cpu_time)    wall_clock(cpu1)
          | Total time                                 :       22.490 s          22.532 s
          | Preparation time                           :        0.144 s           0.145 s
          | Boundary condition initalization           :        0.000 s           0.000 s
          | Grid partitioning                          :        0.112 s           0.113 s
          | Preloading free-atom quantities on grid    :        0.002 s           0.002 s
          | Free-atom superposition energy             :        0.084 s           0.084 s
          | Total time for integrations                :        8.520 s           8.530 s
          | Total time for solution of K.-S. equations :        0.038 s           0.036 s
          | Total time for density & force components  :        7.084 s           7.100 s
          | Total time for mixing                      :        0.213 s           0.214 s
          | Total time for Hartree multipole update    :        0.140 s           0.140 s
          | Total time for Hartree multipole sum       :        5.757 s           5.761 s
          | Total time for total energy evaluation     :        0.003 s           0.007 s
          | Total time for vdW correction              :        0.088 s           0.089 s

          Partial memory accounting:
          | Residual value for overall tracked memory usage across tasks :           0.000 MB (should be 0.000 MB)
          | Peak values for overall tracked memory usage (after allocating hessian_basis_wave):
          |   Minimum:        1.622 MB (on task 1)
          |   Maximum:        1.622 MB (on task 1)
          |   Average:        1.622 MB
          | Largest tracked array allocation (hessian_basis_wave):
          |   Minimum:        0.794 MB (on task 1)
          |   Maximum:        0.794 MB (on task 1)
          |   Average:        0.794 MB
          Note:  These values currently only include a subset of arrays which are explicitly tracked.
          The "true" memory usage will be greater.

          Have a nice day.
------------------------------------------------------------
