  MPI-parallelism will be employed.
------------------------------------------------------------
          Invoking FHI-aims ...
          Version 171221_1
          Compiled on 2019/09/09 at 14:39:39 on host puhti-login2.bullx.

          When using FHI-aims, please cite the following reference:

          Volker Blum, Ralf Gehrke, Felix Hanke, Paula Havu,
          Ville Havu, Xinguo Ren, Karsten Reuter, and Matthias Scheffler,
          'Ab Initio Molecular Simulations with Numeric Atom-Centered Orbitals',
          Computer Physics Communications 180, 2175-2196 (2009)

          For any questions about FHI-aims, please visit the aimsclub website
          with its forums and wiki. Contributions to both the forums and the
          wiki are warmly encouraged - they are for you, and everyone is welcome there.

------------------------------------------------------------



  Date     :  20200710, Time     :  144750.771
  Time zero on CPU 1             :   0.109590000000000E-01  s.
  Internal wall clock time zero  :           363624470.771  s.

  FHI-aims created a unique identifier for this run for later identification
  aims_uuid : 968D3B6F-E70B-42FB-A108-BC41F0F7B86B

  Using        1 parallel tasks.
  Task        0 on host r18c47.bullx reporting.

  Performing system and environment tests:
  | Environment variable OMP_NUM_THREADS correctly set to 1.
  | Stacksize not measured: no C compiler
  | Checking for scalapack...
  | Testing pdtran()...
  | All pdtran() tests passed.

  Obtaining array dimensions for all initial allocations:
  
  -----------------------------------------------------------------------
  Parsing control.in (first pass over file, find array dimensions only).
  The contents of control.in will be repeated verbatim below
  unless switched off by setting 'verbatim_writeout .false.' .
  in the first line of control.in .
  -----------------------------------------------------------------------
  
  #########################################################################################
  #
  #  Volker Blum, FHI 2009 : Test run input file control.in for simple H2O
  #
  #########################################################################################
  #
  #  Physical model
  #
    xc                 pbe
    vdw_correction_hirshfeld
    spin               none
    relativistic       none
    charge             0.
  #
  #  SCF convergence
  #
    occupation_type    gaussian 0.01
    mixer              pulay
      n_max_pulay        10
      charge_mix_param   0.2
    sc_accuracy_rho    1E-5
    sc_accuracy_eev    1E-3
    sc_accuracy_etot   1E-6
    sc_accuracy_forces 1E-4
    sc_iter_limit      100
  #
  #  Relaxation
  #
  #  relax_geometry   bfgs 1.e-3
  #
  ################################################################################
  #
  #  FHI-aims code project
  #  VB, Fritz-Haber Institut, 2009
  #
  #  Suggested "light" defaults for H atom (to be pasted into control.in file)
  #  Be sure to double-check any results obtained with these settings for post-processing,
  #  e.g., with the "tight" defaults and larger basis sets.
  #
  ################################################################################
    species        H
  #     global species definitions
      nucleus             1
      mass                1.00794
  #
      l_hartree           4
  #
      cut_pot             3.5  1.5  1.0
      basis_dep_cutoff    1e-4
  #
      radial_base         24 5.0
      radial_multiplier   1
      angular_grids       specified
        division   0.2421   50
        division   0.3822  110
        division   0.4799  194
        division   0.5341  302
  #      division   0.5626  434
  #      division   0.5922  590
  #      division   0.6542  770
  #      division   0.6868 1202
  #      outer_grid  770
        outer_grid  302
  ################################################################################
  #
  #  Definition of "minimal" basis
  #
  ################################################################################
  #     valence basis states
      valence      1  s   1.
  #     ion occupancy
      ion_occ      1  s   0.5
  ################################################################################
  #
  #  Suggested additional basis functions. For production calculations,
  #  uncomment them one after another (the most important basis functions are
  #  listed first).
  #
  #  Basis constructed for dimers: 0.5 A, 0.7 A, 1.0 A, 1.5 A, 2.5 A
  #
  ################################################################################
  #  "First tier" - improvements: -1014.90 meV to -62.69 meV
       hydro 2 s 2.1
       hydro 2 p 3.5
  #  "Second tier" - improvements: -12.89 meV to -1.83 meV
  #     hydro 1 s 0.85
  #     hydro 2 p 3.7
  #     hydro 2 s 1.2
  #     hydro 3 d 7
  #  "Third tier" - improvements: -0.25 meV to -0.12 meV
  #     hydro 4 f 11.2
  #     hydro 3 p 4.8
  #     hydro 4 d 9
  #     hydro 3 s 3.2
  ################################################################################
  #
  #  FHI-aims code project
  #  VB, Fritz-Haber Institut, 2009
  #
  #  Suggested "light" defaults for C atom (to be pasted into control.in file)
  #  Be sure to double-check any results obtained with these settings for post-processing,
  #  e.g., with the "tight" defaults and larger basis sets.
  #
  ################################################################################
    species        C
  #     global species definitions
      nucleus             6
      mass                12.0107
  #
      l_hartree           4
  #
      cut_pot             3.5  1.5  1.0
      basis_dep_cutoff    1e-4
  #
      radial_base         34 5.0
      radial_multiplier   1
      angular_grids specified
        division   0.3326   50
        division   0.5710  110
        division   0.7727  194
        division   0.8772  302
  #      division   0.9334  434
  #      division   0.9625  590
  #      division   0.9924  770
  #      division   1.0230  974
  #      division   1.4589 1202
  #     outer_grid  974
       outer_grid 302
  ################################################################################
  #
  #  Definition of "minimal" basis
  #
  ################################################################################
  #     valence basis states
      valence      2  s   2.
      valence      2  p   2.
  #     ion occupancy
      ion_occ      2  s   1.
      ion_occ      2  p   1.
  ################################################################################
  #
  #  Suggested additional basis functions. For production calculations,
  #  uncomment them one after another (the most important basis functions are
  #  listed first).
  #
  #  Constructed for dimers: 1.0 A, 1.25 A, 1.5 A, 2.0 A, 3.0 A
  #
  ################################################################################
  #  "First tier" - improvements: -1214.57 meV to -155.61 meV
       hydro 2 p 1.7
       hydro 3 d 6
       hydro 2 s 4.9
  #  "Second tier" - improvements: -67.75 meV to -5.23 meV
  #     hydro 4 f 9.8
  #     hydro 3 p 5.2
  #     hydro 3 s 4.3
  #     hydro 5 g 14.4
  #     hydro 3 d 6.2
  #  "Third tier" - improvements: -2.43 meV to -0.60 meV
  #     hydro 2 p 5.6
  #     hydro 2 s 1.4
  #     hydro 3 d 4.9
  #     hydro 4 f 11.2
  #  "Fourth tier" - improvements: -0.39 meV to -0.18 meV
  #     hydro 2 p 2.1
  #     hydro 5 g 16.4
  #     hydro 4 d 13.2
  #     hydro 3 s 13.6
  #     hydro 4 f 17.6
  #  Further basis functions - improvements: -0.08 meV and below
  #     hydro 3 s 2
  #     hydro 3 p 6
  #     hydro 4 d 20
  ################################################################################
  #
  #  FHI-aims code project
  #  VB, Fritz-Haber Institut, 2009
  #
  #  Suggested "light" defaults for N atom (to be pasted into control.in file)
  #  Be sure to double-check any results obtained with these settings for post-processing,
  #  e.g., with the "tight" defaults and larger basis sets.
  #
  ################################################################################
    species        N
  #     global species definitions
      nucleus             7
      mass                14.0067
  #
      l_hartree           4
  #
      cut_pot             3.5  1.5  1.0
      basis_dep_cutoff    1e-4
  #
      radial_base         35 5.0
      radial_multiplier   1
      angular_grids       specified
        division   0.2599   50
        division   0.4601  110
        division   0.5885  194
        division   0.6503  302
  #      division   0.6939  434
  #      division   0.7396  590
  #      division   0.7632  770
  #      division   0.8122  974
  #      division   1.1604 1202
  #      outer_grid  974
        outer_grid  302
  ################################################################################
  #
  #  Definition of "minimal" basis
  #
  ################################################################################
  #     valence basis states
      valence      2  s   2.
      valence      2  p   3.
  #     ion occupancy
      ion_occ      2  s   1.
      ion_occ      2  p   2.
  ################################################################################
  #
  #  Suggested additional basis functions. For production calculations,
  #  uncomment them one after another (the most important basis functions are
  #  listed first).
  #
  #  Constructed for dimers: 1.0 A, 1.1 A, 1.5 A, 2.0 A, 3.0 A
  #
  ################################################################################
  #  "First tier" - improvements: -1193.42 meV to -220.60 meV
       hydro 2 p 1.8
       hydro 3 d 6.8
       hydro 3 s 5.8
  #  "Second tier" - improvements: -80.21 meV to -6.86 meV
  #     hydro 4 f 10.8
  #     hydro 3 p 5.8
  #     hydro 1 s 0.8
  #     hydro 5 g 16
  #     hydro 3 d 4.9
  #  "Third tier" - improvements: -4.29 meV to -0.53 meV
  #     hydro 3 s 16
  #     ionic 2 p auto
  #     hydro 3 d 6.6
  #     hydro 4 f 11.6
  #  "Fourth tier" - improvements: -0.75 meV to -0.25 meV
  #     hydro 2 p 4.5
  #     hydro 2 s 2.4
  #     hydro 5 g 14.4
  #     hydro 4 d 14.4
  #     hydro 4 f 16.8
  # Further basis functions - -0.21 meV and below
  #     hydro 3 p 14.8
  #     hydro 3 s 4.4
  #     hydro 3 d 19.6
  #     hydro 5 g 12.8
  ################################################################################
  #
  #  FHI-aims code project
  #  VB, Fritz-Haber Institut, 2009
  #
  #  Suggested "light" defaults for O atom (to be pasted into control.in file)
  #  Be sure to double-check any results obtained with these settings for post-processing,
  #  e.g., with the "tight" defaults and larger basis sets.
  #
  ################################################################################
    species        O
  #     global species definitions
      nucleus             8
      mass                15.9994
  #
      l_hartree           4
  #
      cut_pot             3.5  1.5  1.0
      basis_dep_cutoff    1e-4
  #
      radial_base         36 5.0
      radial_multiplier   1
       angular_grids specified
        division   0.2659   50
        division   0.4451  110
        division   0.6052  194
        division   0.7543  302
  #      division   0.8014  434
  #      division   0.8507  590
  #      division   0.8762  770
  #      division   0.9023  974
  #      division   1.2339 1202
  #      outer_grid 974
        outer_grid 302
  ################################################################################
  #
  #  Definition of "minimal" basis
  #
  ################################################################################
  #     valence basis states
      valence      2  s   2.
      valence      2  p   4.
  #     ion occupancy
      ion_occ      2  s   1.
      ion_occ      2  p   3.
  ################################################################################
  #
  #  Suggested additional basis functions. For production calculations,
  #  uncomment them one after another (the most important basis functions are
  #  listed first).
  #
  #  Constructed for dimers: 1.0 A, 1.208 A, 1.5 A, 2.0 A, 3.0 A
  #
  ################################################################################
  #  "First tier" - improvements: -699.05 meV to -159.38 meV
       hydro 2 p 1.8
       hydro 3 d 7.6
       hydro 3 s 6.4
  #  "Second tier" - improvements: -49.91 meV to -5.39 meV
  #     hydro 4 f 11.6
  #     hydro 3 p 6.2
  #     hydro 3 d 5.6
  #     hydro 5 g 17.6
  #     hydro 1 s 0.75
  #  "Third tier" - improvements: -2.83 meV to -0.50 meV
  #     ionic 2 p auto
  #     hydro 4 f 10.8
  #     hydro 4 d 4.7
  #     hydro 2 s 6.8
  #  "Fourth tier" - improvements: -0.40 meV to -0.12 meV
  #     hydro 3 p 5
  #     hydro 3 s 3.3
  #     hydro 5 g 15.6
  #     hydro 4 f 17.6
  #     hydro 4 d 14
  # Further basis functions - -0.08 meV and below
  #     hydro 3 s 2.1
  #     hydro 4 d 11.6
  #     hydro 3 p 16
  #     hydro 2 s 17.2
  
  -----------------------------------------------------------------------
  Completed first pass over input file control.in .
  -----------------------------------------------------------------------
  
  
  -----------------------------------------------------------------------
  Parsing geometry.in (first pass over file, find array dimensions only).
  The contents of geometry.in will be repeated verbatim below
  unless switched off by setting 'verbatim_writeout .false.' .
  in the first line of geometry.in .
  -----------------------------------------------------------------------
  
  atom  0.00000 0.00000 0.00000 C
  atom  1.09300 0.00000 0.00000 H
  atom  -0.47961 0.00000 -1.41207 N
  atom  0.31233 0.19276 -2.02649 H
  atom  -0.87436 -0.91418 -1.62319 H
  atom  -0.49584 1.26211 0.72868 C
  atom  -1.58789 1.28919 0.74431 H
  atom  -0.13407 1.27425 1.75947 H
  atom  -0.13407 2.16087 0.22380 H
  atom  -0.39425 -1.28861 0.74398 C
  atom  -0.10189 -1.56493 1.88303 O
  atom  -1.10210 -2.13717 0.06896 O
  atom  -1.97772 -1.74247 0.21890 H
  
  -----------------------------------------------------------------------
  Completed first pass over input file geometry.in .
  -----------------------------------------------------------------------
  

  Basic array size parameters:
  | Number of species                 :        4
  | Number of atoms                   :       13
  | Max. basis fn. angular momentum   :        2
  | Max. atomic/ionic basis occupied n:        2
  | Max. number of basis fn. types    :        2
  | Max. radial fns per species/type  :        3
  | Max. logarithmic grid size        :     1301
  | Max. radial integration grid size :       36
  | Max. angular integration grid size:      302
  | Max. angular grid division number :        8
  | Radial grid for Hartree potential :     1301
  | Number of spin channels           :        1

------------------------------------------------------------
          Reading file control.in.
------------------------------------------------------------
  XC: Using PBE gradient-corrected functionals.
  Spin treatment: No spin polarisation.
  Non-relativistic treatment of kinetic energy.
  Charge =   0.000000E+00: Neutral system requested explicitly.
  Occupation type: Gaussian broadening, width =   0.100000E-01 eV.
  Using pulay charge density mixing.
  Pulay mixing - number of memorized iterations:   10
  Charge density mixing - mixing parameter:     0.2000
  Convergence accuracy of self-consistent charge density:  0.1000E-04
  Convergence accuracy of sum of eigenvalues:  0.1000E-02
  Convergence accuracy of total energy:  0.1000E-05
  Convergence accuracy of forces:  0.1000E-03
  Maximum number of s.-c. iterations  :   100
 
  Reading configuration options for species H                   .
  | Found nuclear charge :   1.0000
  | Found atomic mass :    1.00794000000000      amu
  | Found l_max for Hartree potential  :   4
  | Found cutoff potl. onset [A], width [A], scale factor :    3.50000    1.50000    1.00000
  | Threshold for basis-dependent cutoff potential is   0.100000E-03
  | Found data for basic radial integration grid :    24 points, outermost radius =    5.000 A
  | Found multiplier for basic radial grid :   1
  | Found angular grid specification: user-specified.
  | Specified grid contains     5 separate shells.
  | Check grid settings after all constraints further below.
  | Found free-atom valence shell :  1 s   1.000
  | No ionic wave fns used. Skipping ion_occ.
  | Found hydrogenic basis function :  2 s   2.100
  | Found hydrogenic basis function :  2 p   3.500
  Species H                   : Missing cutoff potential type.
  Defaulting to exp(1/x)/(1-x)^2 type cutoff potential.
  Species H : No 'logarithmic' tag. Using default grid for free atom:
  | Default logarithmic grid data [bohr] : 0.1000E-03 0.1000E+03 0.1012E+01
  Species H : On-site basis accuracy parameter (for Gram-Schmidt orthonormalisation) not specified.
  Using default value basis_acc =  0.1000000E-03.
  Species H                   : Using default innermost maximum threshold i_radial=  2 for radial functions.
  Species H                   : Default cutoff onset for free atom density etc. : 0.35000000E+01 AA.
  Species H                   : Basic radial grid will be enhanced according to radial_multiplier =   1, to contain    24 grid points.
 
  Reading configuration options for species C                   .
  | Found nuclear charge :   6.0000
  | Found atomic mass :    12.0107000000000      amu
  | Found l_max for Hartree potential  :   4
  | Found cutoff potl. onset [A], width [A], scale factor :    3.50000    1.50000    1.00000
  | Threshold for basis-dependent cutoff potential is   0.100000E-03
  | Found data for basic radial integration grid :    34 points, outermost radius =    5.000 A
  | Found multiplier for basic radial grid :   1
  | Found angular grid specification: user-specified.
  | Specified grid contains     5 separate shells.
  | Check grid settings after all constraints further below.
  | Found free-atom valence shell :  2 s   2.000
  | Found free-atom valence shell :  2 p   2.000
  | No ionic wave fns used. Skipping ion_occ.
  | No ionic wave fns used. Skipping ion_occ.
  | Found hydrogenic basis function :  2 p   1.700
  | Found hydrogenic basis function :  3 d   6.000
  | Found hydrogenic basis function :  2 s   4.900
  Species C                   : Missing cutoff potential type.
  Defaulting to exp(1/x)/(1-x)^2 type cutoff potential.
  Species C : No 'logarithmic' tag. Using default grid for free atom:
  | Default logarithmic grid data [bohr] : 0.1000E-03 0.1000E+03 0.1012E+01
  Species C : On-site basis accuracy parameter (for Gram-Schmidt orthonormalisation) not specified.
  Using default value basis_acc =  0.1000000E-03.
  Species C                   : Using default innermost maximum threshold i_radial=  2 for radial functions.
  Species C                   : Default cutoff onset for free atom density etc. : 0.35000000E+01 AA.
  Species C                   : Basic radial grid will be enhanced according to radial_multiplier =   1, to contain    34 grid points.
 
  Reading configuration options for species N                   .
  | Found nuclear charge :   7.0000
  | Found atomic mass :    14.0067000000000      amu
  | Found l_max for Hartree potential  :   4
  | Found cutoff potl. onset [A], width [A], scale factor :    3.50000    1.50000    1.00000
  | Threshold for basis-dependent cutoff potential is   0.100000E-03
  | Found data for basic radial integration grid :    35 points, outermost radius =    5.000 A
  | Found multiplier for basic radial grid :   1
  | Found angular grid specification: user-specified.
  | Specified grid contains     5 separate shells.
  | Check grid settings after all constraints further below.
  | Found free-atom valence shell :  2 s   2.000
  | Found free-atom valence shell :  2 p   3.000
  | No ionic wave fns used. Skipping ion_occ.
  | No ionic wave fns used. Skipping ion_occ.
  | Found hydrogenic basis function :  2 p   1.800
  | Found hydrogenic basis function :  3 d   6.800
  | Found hydrogenic basis function :  3 s   5.800
  Species N                   : Missing cutoff potential type.
  Defaulting to exp(1/x)/(1-x)^2 type cutoff potential.
  Species N : No 'logarithmic' tag. Using default grid for free atom:
  | Default logarithmic grid data [bohr] : 0.1000E-03 0.1000E+03 0.1012E+01
  Species N : On-site basis accuracy parameter (for Gram-Schmidt orthonormalisation) not specified.
  Using default value basis_acc =  0.1000000E-03.
  Species N                   : Using default innermost maximum threshold i_radial=  2 for radial functions.
  Species N                   : Default cutoff onset for free atom density etc. : 0.35000000E+01 AA.
  Species N                   : Basic radial grid will be enhanced according to radial_multiplier =   1, to contain    35 grid points.
 
  Reading configuration options for species O                   .
  | Found nuclear charge :   8.0000
  | Found atomic mass :    15.9994000000000      amu
  | Found l_max for Hartree potential  :   4
  | Found cutoff potl. onset [A], width [A], scale factor :    3.50000    1.50000    1.00000
  | Threshold for basis-dependent cutoff potential is   0.100000E-03
  | Found data for basic radial integration grid :    36 points, outermost radius =    5.000 A
  | Found multiplier for basic radial grid :   1
  | Found angular grid specification: user-specified.
  | Specified grid contains     5 separate shells.
  | Check grid settings after all constraints further below.
  | Found free-atom valence shell :  2 s   2.000
  | Found free-atom valence shell :  2 p   4.000
  | No ionic wave fns used. Skipping ion_occ.
  | No ionic wave fns used. Skipping ion_occ.
  | Found hydrogenic basis function :  2 p   1.800
  | Found hydrogenic basis function :  3 d   7.600
  | Found hydrogenic basis function :  3 s   6.400
  Species O                   : Missing cutoff potential type.
  Defaulting to exp(1/x)/(1-x)^2 type cutoff potential.
  Species O : No 'logarithmic' tag. Using default grid for free atom:
  | Default logarithmic grid data [bohr] : 0.1000E-03 0.1000E+03 0.1012E+01
  Species O : On-site basis accuracy parameter (for Gram-Schmidt orthonormalisation) not specified.
  Using default value basis_acc =  0.1000000E-03.
  Species O                   : Using default innermost maximum threshold i_radial=  2 for radial functions.
  Species O                   : Default cutoff onset for free atom density etc. : 0.35000000E+01 AA.
  Species O                   : Basic radial grid will be enhanced according to radial_multiplier =   1, to contain    36 grid points.
 
  Finished reading input file 'control.in'. Consistency checks are next.
 
  MPI_IN_PLACE appears to work with this MPI implementation.
  | Keeping use_mpi_in_place .true. (see manual).
  Target number of points in a grid batch is not set. Defaulting to  100
  Method for grid partitioning is not set. Defaulting to parallel hash+maxmin partitioning.
  Batch size limit is not set. Defaulting to    200
  By default, will store active basis functions for each batch.
  If in need of memory, prune_basis_once .false. can be used to disable this option.
  communication_type for Hartree potential was not specified.
  Defaulting to calc_hartree .
  Pulay mixer: Number of initial linear mixing iterations not set.
  Defaulting to    0 iterations.
  Work space size for distributed Hartree potential not set.
  Defaulting to   0.200000E+03 MB.
  Algorithm-dependent basis array size parameters:
  | n_max_pulay                         :       10
  Presetting      1001 iterations before the initial mixing cycle
  is restarted anyway using the sc_init_iter criterion / keyword.
  Presetting a factor      1.000 between actual scf density residual
  and density convergence criterion sc_accuracy_rho below which sc_init_iter
  takes no effect.
  Geometry relaxation not requested: no relaxation will be performed.
  Handling of forces: Unphysical translation and rotation will be removed from forces.
  No accuracy limit for integral partition fn. given. Defaulting to  0.1000E-14.
  No threshold value for u(r) in integrations given. Defaulting to  0.1000E-05.
  No accuracy for occupation numbers given. Defaulting to  0.1000E-12.
  No threshold value for occupation numbers given. Defaulting to  0.0000E+00.
  No accuracy for fermi level given. Defaulting to  0.1000E-19.
  Maximum # of iterations to find E_F not set. Defaulting to  200.
  Preferred method for the eigenvalue solver ('KS_method') not specified in 'control.in'.
  Defaulting to serial version, 'lapack_fast'.
  Will not use alltoall communication since running on < 1024 CPUs.
  Threshold for basis singularities not set.
  Default threshold for basis singularities:  0.1000E-04
  partition_type (choice of integration weights) for integrals was not specified.
  | Using a version of the partition function of Stratmann and coworkers ('stratmann_smoother').
  | At each grid point, the set of atoms used to build the partition table is smoothly restricted to
  | only those atoms whose free-atom density would be non-zero at that grid point.
  Partitioning for Hartree potential was not defined. Using partition_type for integrals.
  | Adjusted default value of keyword multip_moments_threshold to:       0.10000000E-11
  | This value may affect high angular momentum components of the Hartree potential in periodic systems.
  No q(lm)/r^(l+1) cutoff set for long-range Hartree potential.
  | Using default value of  0.100000E-09 .
  | Verify using the multipole_threshold keyword.
  Defaulting to new monopole extrapolation.
  Density update method: automatic selection selected.
------------------------------------------------------------


------------------------------------------------------------
          Reading geometry description geometry.in.
------------------------------------------------------------
  Input structure read successfully.
  The structure contains       13 atoms,  and a total of         48.000 electrons.

  Input geometry:
  | No unit cell requested.
  | Atomic structure:
  |       Atom                x [A]            y [A]            z [A]
  |    1: Species C             0.00000000        0.00000000        0.00000000
  |    2: Species H             1.09300000        0.00000000        0.00000000
  |    3: Species N            -0.47961000        0.00000000       -1.41207000
  |    4: Species H             0.31233000        0.19276000       -2.02649000
  |    5: Species H            -0.87436000       -0.91418000       -1.62319000
  |    6: Species C            -0.49584000        1.26211000        0.72868000
  |    7: Species H            -1.58789000        1.28919000        0.74431000
  |    8: Species H            -0.13407000        1.27425000        1.75947000
  |    9: Species H            -0.13407000        2.16087000        0.22380000
  |   10: Species C            -0.39425000       -1.28861000        0.74398000
  |   11: Species O            -0.10189000       -1.56493000        1.88303000
  |   12: Species O            -1.10210000       -2.13717000        0.06896000
  |   13: Species H            -1.97772000       -1.74247000        0.21890000
  |

  | The smallest distance between any two atoms is         0.97210106 AA.
  |
  | The first atom of this pair is atom number                     12 .
  | The second atom of this pair is atom number                    13 .

  Number of empty states per atom not set in control.in - providing a guess from actual geometry.
  | Total number of empty states used during s.c.f. cycle:       29
  If you use a very high smearing, use empty_states (per atom!) in control.in to increase this value.

  Structure-dependent array size parameters: 
  | Maximum number of distinct radial functions  :       21
  | Maximum number of basis functions            :      119
  | Number of Kohn-Sham states (occupied + empty):       53
------------------------------------------------------------

------------------------------------------------------------
          Preparing all fixed parts of the calculation.
------------------------------------------------------------
  Determining machine precision:
    2.225073858507201E-308
  Setting up grids for atomic and cluster calculations.

  Creating wave function, potential, and density for free atoms.

  Species: H

  List of occupied orbitals and eigenvalues:
    n    l              occ      energy [Ha]    energy [eV]
    1    0           1.0000        -0.237589        -6.4651


  Species: C

  List of occupied orbitals and eigenvalues:
    n    l              occ      energy [Ha]    energy [eV]
    1    0           2.0000       -10.038835      -273.1706
    2    0           2.0000        -0.502696       -13.6791
    2    1           2.0000        -0.191971        -5.2238


  Species: N

  List of occupied orbitals and eigenvalues:
    n    l              occ      energy [Ha]    energy [eV]
    1    0           2.0000       -14.128000      -384.4424
    2    0           2.0000        -0.681077       -18.5330
    2    1           3.0000        -0.259788        -7.0692


  Species: O

  List of occupied orbitals and eigenvalues:
    n    l              occ      energy [Ha]    energy [eV]
    1    0           2.0000       -18.898188      -514.2459
    2    0           2.0000        -0.878505       -23.9053
    2    1           4.0000        -0.331779        -9.0282

  Creating fixed part of basis set: Ionic, confined, hydrogenic.
 
  H                    hydrogenic:
 
  List of hydrogenic basis orbitals: 
    n    l      effective z      eigenvalue [eV]  inner max. [A]     outer max. [A]     outer radius [A]   
    2    0         2.100000       -14.9728           0.193243           1.317208           4.583499
    2    1         3.500000       -41.6669           0.602369           0.602369           3.723403
 
 
  C                    hydrogenic:
 
  List of hydrogenic basis orbitals: 
    n    l      effective z      eigenvalue [eV]  inner max. [A]     outer max. [A]     outer radius [A]   
    2    1         1.700000        -9.7616           1.230570           1.230570           4.607917
    3    2         6.000000       -54.4224           0.792453           0.792453           3.883070
    2    0         4.900000       -81.6679           0.082559           0.562749           3.078220
 
 
  N                    hydrogenic:
 
  List of hydrogenic basis orbitals: 
    n    l      effective z      eigenvalue [eV]  inner max. [A]     outer max. [A]     outer radius [A]   
    2    1         1.800000       -10.9749           1.177451           1.177451           4.573712
    3    2         6.800000       -69.9026           0.704619           0.704619           3.538137
    3    0         5.800000       -50.8545           0.067388           1.191934           4.250239
 
 
  O                    hydrogenic:
 
  List of hydrogenic basis orbitals: 
    n    l      effective z      eigenvalue [eV]  inner max. [A]     outer max. [A]     outer radius [A]   
    2    1         1.800000       -10.9749           1.164242           1.164242           4.578029
    3    2         7.600000       -87.3180           0.624125           0.624125           3.251020
    3    0         6.400000       -61.9207           0.061167           1.081902           4.001998
 

  Adding cutoff potential to free-atom effective potential.
  Creating atomic-like basis functions for current effective potential.

  Species H                   :

  List of atomic basis orbitals and eigenvalues:
    n    l      energy [Ha]    energy [eV]    outer radius [A]
    1    0        -0.237589        -6.4651       4.527807


  Species C                   :

  List of atomic basis orbitals and eigenvalues:
    n    l      energy [Ha]    energy [eV]    outer radius [A]
    1    0       -10.038835      -273.1706       1.934409
    2    0        -0.502696       -13.6791       4.496620
    2    1        -0.191971        -5.2238       4.551928


  Species N                   :

  List of atomic basis orbitals and eigenvalues:
    n    l      energy [Ha]    energy [eV]    outer radius [A]
    1    0       -14.128000      -384.4424       1.637919
    2    0        -0.681077       -18.5330       4.463241
    2    1        -0.259788        -7.0692       4.518138


  Species O                   :

  List of atomic basis orbitals and eigenvalues:
    n    l      energy [Ha]    energy [eV]    outer radius [A]
    1    0       -18.898188      -514.2459       1.415765
    2    0        -0.878505       -23.9053       4.413171
    2    1        -0.331779        -9.0282       4.522403

  Assembling full basis from fixed parts.
  | Species H :   atomic orbital   1 s accepted.
  | Species H :    hydro orbital   2 s accepted.
  | Species H :    hydro orbital   2 p accepted.
  | Species C :   atomic orbital   1 s accepted.
  | Species C :    hydro orbital   2 s accepted.
  | Species C :   atomic orbital   2 s accepted.
  | Species C :   atomic orbital   2 p accepted.
  | Species C :    hydro orbital   2 p accepted.
  | Species C :    hydro orbital   3 d accepted.
  | Species N :   atomic orbital   1 s accepted.
  | Species N :    hydro orbital   3 s accepted.
  | Species N :   atomic orbital   2 s accepted.
  | Species N :   atomic orbital   2 p accepted.
  | Species N :    hydro orbital   2 p accepted.
  | Species N :    hydro orbital   3 d accepted.
  | Species O :   atomic orbital   1 s accepted.
  | Species O :    hydro orbital   3 s accepted.
  | Species O :   atomic orbital   2 s accepted.
  | Species O :   atomic orbital   2 p accepted.
  | Species O :    hydro orbital   2 p accepted.
  | Species O :    hydro orbital   3 d accepted.
 
  Basis size parameters after reduction:
  | Total number of radial functions:       21
  | Total number of basis functions :      119
 
  Per-task memory consumption for arrays in subroutine allocate_ext:
  |           5.250512MB.
  Testing on-site integration grid accuracy.
  |  Species  Function  <phi|h_atom|phi> (log., in eV)  <phi|h_atom|phi> (rad., in eV)
           1        1                 -6.4663192853                 -6.4651273558
           1        2                 13.7111246313                 13.7170609718
           1        3                 25.2673269279                 25.2674696378
           2        4               -273.1705927641               -273.1705631568
           2        5                -10.7109323383                -10.7107120029
           2        6                 17.4381822266                 17.4352413244
           2        7                 -5.2255326521                 -5.2270484734
           2        8                  8.6835629259                  8.6603288385
           2        9                 27.4952418996                 27.4953360207
           3       10               -384.4424306495               -384.4423701208
           3       11                 12.5842251816                 12.5842222903
           3       12                -15.7264628251                -15.7264433455
           3       13                 -7.0696854293                 -7.0701769954
           3       14                  8.8090390882                  8.7901077751
           3       15                 35.9586762123                 35.9588528632
           4       16               -514.2458688638               -514.2457643834
           4       17                 15.1795651126                 15.1795290741
           4       18                -21.5359799773                -21.5360846186
           4       19                 -9.0283069236                 -9.0284644067
           4       20                  8.3027758564                  8.2834874195
           4       21                 45.8339351984                 45.8338762259

  Preparing densities etc. for the partition functions (integrals / Hartree potential).

  Preparations completed.
  max(cpu_time)          :      0.146 s.
  Wall clock time (cpu1) :      0.147 s.
------------------------------------------------------------

------------------------------------------------------------
          Begin self-consistency loop: Initialization.

          Date     :  20200710, Time     :  144750.932
------------------------------------------------------------

  Initializing index lists of integration centers etc. from given atomic structure:
  | Number of centers in hartree potential         :        13
  | Number of centers in hartree multipole         :        13
  | Number of centers in electron density summation:        13
  | Number of centers in basis integrals           :        13
  | Number of centers in integrals                 :        13
  | Number of centers in hamiltonian               :        13
  Partitioning the integration grid into batches with parallel hashing+maxmin method.
  | Number of batches:      961
  | Maximal batch size:     139
  | Minimal batch size:      66
  | Average batch size:      72.472
  | Standard deviation of batch sizes:      16.882

  Integration load balanced across     1 MPI tasks.
  Work distribution over tasks is as follows:
  Task     0 has      69646 integration points.
  Initializing partition tables, free-atom densities, potentials, etc. across the integration grid (initialize_grid_storage).
  | initialize_grid_storage: Actual outermost partition radius vs. multipole_radius_free
  | (-- VB: in principle, multipole_radius_free should be larger, hence this output)
  | Species        1: Confinement radius =              4.999999999999999 AA, multipole_radius_free =              5.054417573612229 AA.
  | Species        1: outer_partition_radius set to              5.054417573612229 AA .
  | Species        2: Confinement radius =              4.999999999999999 AA, multipole_radius_free =              5.019602836301480 AA.
  | Species        2: outer_partition_radius set to              5.019602836301480 AA .
  | Species        3: Confinement radius =              4.999999999999999 AA, multipole_radius_free =              5.043624274424571 AA.
  | Species        3: outer_partition_radius set to              5.043624274424571 AA .
  | Species        4: Confinement radius =              4.999999999999999 AA, multipole_radius_free =              5.048384829883283 AA.
  | Species        4: outer_partition_radius set to              5.048384829883283 AA .
  | Original list of interatomic distances with          13 x         13 entries is created.
  | Net number of integration points:    69646
  | of which are non-zero points    :    59481
  Renormalizing the initial density to the exact electron count on the 3D integration grid.
  | Initial density: Formal number of electrons (from input files) :      48.0000000000
  | Integrated number of electrons on 3D grid     :      47.9998580946
  | Charge integration error                      :      -0.0001419054
  | Normalization factor for density and gradient :       1.0000029564
  Obtaining max. number of non-zero basis functions in each batch (get_n_compute_maxes).
  | Maximal number of non-zero basis functions:      119 in task     0
  Selecting the method for density update.
  Loop over occupied states selected for charge density update.
  Allocating        0.050 MB for KS_eigenvector
  Integrating Hamiltonian matrix: batch-based integration.
  Time summed over all CPUs for integration: real work        0.500 s, elapsed        0.500 s
  Integrating overlap matrix.
  Time summed over all CPUs for integration: real work        0.212 s, elapsed        0.212 s

  Updating Kohn-Sham eigenvalues and eigenvectors using ELSI and the ELPA eigensolver.
  Overlap matrix is nonsingular
  | Lowest eigenvalue of overlap  :  0.46E-02
  | Highest eigenvalue of overlap :  0.62E+01
  Finished singularity check of overlap matrix
  | Time :     0.002 s
  Finished Cholesky decomposition
  | Time :     0.000 s
  Finished transformation to standard eigenproblem
  | Time :     0.000 s
  Starting LAPACK eigensolver
  Finished solving standard eigenproblem
  | Time :     0.002 s
  Finished back-transformation of eigenvectors
  | Time :     0.000 s

  Obtaining occupation numbers and chemical potential using ELSI.
  | Chemical potential (Fermi level):    -9.59293243eV
  Writing Kohn-Sham eigenvalues.

  State    Occupation    Eigenvalue [Ha]    Eigenvalue [eV]
      1       2.00000         -19.008437         -517.24588
      2       2.00000         -18.977275         -516.39792
      3       2.00000         -14.245851         -387.64932
      4       2.00000         -10.166590         -276.64700
      5       2.00000         -10.141353         -275.96027
      6       2.00000         -10.132151         -275.70985
      7       2.00000          -1.184044          -32.21947
      8       2.00000          -1.098326          -29.88698
      9       2.00000          -0.990614          -26.95599
     10       2.00000          -0.861713          -23.44842
     11       2.00000          -0.752807          -20.48493
     12       2.00000          -0.679364          -18.48645
     13       2.00000          -0.638567          -17.37629
     14       2.00000          -0.606605          -16.50656
     15       2.00000          -0.590570          -16.07023
     16       2.00000          -0.559254          -15.21809
     17       2.00000          -0.548776          -14.93295
     18       2.00000          -0.540546          -14.70901
     19       2.00000          -0.517384          -14.07873
     20       2.00000          -0.497882          -13.54805
     21       2.00000          -0.460008          -12.51747
     22       2.00000          -0.427985          -11.64607
     23       2.00000          -0.404931          -11.01873
     24       2.00000          -0.387125          -10.53421
     25       0.00000          -0.162844           -4.43122
     26       0.00000          -0.066020           -1.79650
     27       0.00000          -0.034191           -0.93039
     28       0.00000          -0.019266           -0.52427
     29       0.00000           0.006710            0.18260
     30       0.00000           0.010951            0.29800
     31       0.00000           0.023711            0.64520
     32       0.00000           0.030817            0.83856
     33       0.00000           0.035626            0.96944
     34       0.00000           0.070197            1.91016
     35       0.00000           0.086275            2.34766
     36       0.00000           0.132457            3.60433
     37       0.00000           0.166582            4.53292
     38       0.00000           0.204533            5.56563
     39       0.00000           0.214363            5.83311
     40       0.00000           0.223689            6.08689
     41       0.00000           0.258513            7.03449
     42       0.00000           0.272701            7.42056
     43       0.00000           0.291060            7.92015
     44       0.00000           0.307476            8.36684
     45       0.00000           0.321789            8.75632
     46       0.00000           0.363875            9.90153
     47       0.00000           0.376892           10.25576
     48       0.00000           0.393903           10.71864
     49       0.00000           0.424911           11.56243
     50       0.00000           0.464164           12.63054
     51       0.00000           0.520032           14.15079
     52       0.00000           0.525923           14.31109
     53       0.00000           0.564970           15.37361

  Highest occupied state (VBM) at    -10.53421020 eV
  | Occupation number:      2.00000000

  Lowest unoccupied state (CBM) at    -4.43122130 eV
  | Occupation number:      0.00000000

  Overall HOMO-LUMO gap:      6.10298890 eV.
  Calculating total energy contributions from superposition of free atom densities.

  Total energy components:
  | Sum of eigenvalues            :        -188.83632107 Ha       -5138.49774024 eV
  | XC energy correction          :         -41.78985217 Ha       -1137.15973559 eV
  | XC potential correction       :          53.72167632 Ha        1461.84119044 eV
  | Free-atom electrostatic energy:        -146.85198834 Ha       -3996.04591934 eV
  | Hartree energy correction     :           0.00000000 Ha           0.00000000 eV
  | vdW energy correction         :           0.00000000 Ha           0.00000000 eV
  | Entropy correction            :           0.00000000 Ha           0.00000000 eV
  | ---------------------------
  | Total energy                  :        -323.75648526 Ha       -8809.86220473 eV
  | Total energy, T -> 0          :        -323.75648526 Ha       -8809.86220473 eV  <-- do not rely on this value for anything but (periodic) metals
  | Electronic free energy        :        -323.75648526 Ha       -8809.86220473 eV

  Derived energy quantities:
  | Kinetic energy                :         320.50195614 Ha        8721.30196139 eV
  | Electrostatic energy          :        -602.46858922 Ha      -16394.00443054 eV
  | Energy correction for multipole
  | error in Hartree potential    :           0.00000000 Ha           0.00000000 eV
  | Sum of eigenvalues per atom                           :        -395.26905694 eV
  | Total energy (T->0) per atom                          :        -677.68170806 eV  <-- do not rely on this value for anything but (periodic) metals
  | Electronic free energy per atom                       :        -677.68170806 eV
  Initialize hartree_potential_storage
  Max. number of atoms included in rho_multipole:           13

  End scf initialization - timings             :  max(cpu_time)    wall_clock(cpu1)
  | Time for scf. initialization               :        1.150 s           1.158 s
  | Boundary condition initialization          :        0.000 s           0.000 s
  | Integration                                :        0.711 s           0.712 s
  | Solution of K.-S. eqns.                    :        0.004 s           0.005 s
  | Grid partitioning                          :        0.111 s           0.112 s
  | Preloading free-atom quantities on grid    :        0.002 s           0.003 s
  | Free-atom superposition energy             :        0.084 s           0.084 s
  | Total energy evaluation                    :        0.000 s           0.000 s

  Partial memory accounting:
  | Current value for overall tracked memory usage on task 0  :           0.165 MB
  | Peak value for overall tracked memory usage on task 0     :           0.678 MB after allocating wave
  | Largest tracked array allocation on task 0 so far         :           0.132 MB  when allocating H_times_psi
  Note:  These values currently only include a subset of arrays which are explicitly tracked.
  The "true" memory usage will be greater.
------------------------------------------------------------

------------------------------------------------------------
          Begin self-consistency iteration #    1

  Date     :  20200710, Time     :  144752.090
------------------------------------------------------------
  Evaluating new KS density.
  Integration grid: deviation in total charge (<rho> - N_e) =   0.000000E+00
  Pulay mixing of updated and previous charge densities.

  Evaluating partitioned Hartree potential by multipole expansion.
  | Analytical far-field extrapolation by fixed multipoles:
  | Hartree multipole sum: apparent total charge =  -0.247963E-03
  Summing up the Hartree potential.
  Time summed over all CPUs for potential: real work        0.282 s, elapsed        0.282 s
  | RMS charge density error from multipole expansion :   0.591225E-02

  Integrating Hamiltonian matrix: batch-based integration.
  Time summed over all CPUs for integration: real work        0.497 s, elapsed        0.497 s

  Updating Kohn-Sham eigenvalues and eigenvectors using ELSI and the ELPA eigensolver.
  Finished Cholesky decomposition
  | Time :     0.000 s
  Finished transformation to standard eigenproblem
  | Time :     0.000 s
  Starting LAPACK eigensolver
  Finished solving standard eigenproblem
  | Time :     0.001 s
  Finished back-transformation of eigenvectors
  | Time :     0.000 s

  Obtaining occupation numbers and chemical potential using ELSI.
  | Chemical potential (Fermi level):    -4.45273797eV
  Writing Kohn-Sham eigenvalues.

  State    Occupation    Eigenvalue [Ha]    Eigenvalue [eV]
      1       2.00000         -18.901575         -514.33802
      2       2.00000         -18.840544         -512.67728
      3       2.00000         -14.096012         -383.57201
      4       2.00000         -10.120115         -275.38235
      5       2.00000         -10.063281         -273.83582
      6       2.00000         -10.029282         -272.91066
      7       2.00000          -1.136235          -30.91853
      8       2.00000          -1.037104          -28.22104
      9       2.00000          -0.921302          -25.06990
     10       2.00000          -0.795308          -21.64144
     11       2.00000          -0.701540          -19.08989
     12       2.00000          -0.635045          -17.28044
     13       2.00000          -0.586549          -15.96082
     14       2.00000          -0.544780          -14.82422
     15       2.00000          -0.538178          -14.64456
     16       2.00000          -0.495982          -13.49635
     17       2.00000          -0.491047          -13.36207
     18       2.00000          -0.476916          -12.97755
     19       2.00000          -0.453324          -12.33559
     20       2.00000          -0.439343          -11.95514
     21       2.00000          -0.399936          -10.88281
     22       2.00000          -0.374844          -10.20002
     23       2.00000          -0.334972           -9.11504
     24       2.00000          -0.312525           -8.50423
     25       0.00000          -0.129283           -3.51797
     26       0.00000          -0.047167           -1.28348
     27       0.00000          -0.004958           -0.13492
     28       0.00000           0.016135            0.43904
     29       0.00000           0.036920            1.00466
     30       0.00000           0.052085            1.41731
     31       0.00000           0.059745            1.62574
     32       0.00000           0.072359            1.96900
     33       0.00000           0.078681            2.14101
     34       0.00000           0.106560            2.89965
     35       0.00000           0.124634            3.39146
     36       0.00000           0.160987            4.38068
     37       0.00000           0.192021            5.22516
     38       0.00000           0.229590            6.24747
     39       0.00000           0.245947            6.69256
     40       0.00000           0.262904            7.15399
     41       0.00000           0.288719            7.85645
     42       0.00000           0.307395            8.36465
     43       0.00000           0.328420            8.93675
     44       0.00000           0.346311            9.42359
     45       0.00000           0.357284            9.72218
     46       0.00000           0.405226           11.02675
     47       0.00000           0.410101           11.15940
     48       0.00000           0.434166           11.81426
     49       0.00000           0.463046           12.60014
     50       0.00000           0.496278           13.50441
     51       0.00000           0.558613           15.20063
     52       0.00000           0.561854           15.28883
     53       0.00000           0.598070           16.27431

  Highest occupied state (VBM) at     -8.50423047 eV
  | Occupation number:      2.00000000

  Lowest unoccupied state (CBM) at    -3.51796521 eV
  | Occupation number:      0.00000000

  Overall HOMO-LUMO gap:      4.98626526 eV.

  Total energy components:
  | Sum of eigenvalues            :        -185.45148108 Ha       -5046.39155777 eV
  | XC energy correction          :         -42.11939816 Ha       -1146.12713825 eV
  | XC potential correction       :          54.15029028 Ha        1473.50436961 eV
  | Free-atom electrostatic energy:        -146.85198834 Ha       -3996.04591934 eV
  | Hartree energy correction     :          -3.29833488 Ha         -89.75225859 eV
  | vdW energy correction         :           0.00000000 Ha           0.00000000 eV
  | Entropy correction            :           0.00000000 Ha           0.00000000 eV
  | ---------------------------
  | Total energy                  :        -323.57091218 Ha       -8804.81250434 eV
  | Total energy, T -> 0          :        -323.57091218 Ha       -8804.81250434 eV  <-- do not rely on this value for anything but (periodic) metals
  | Electronic free energy        :        -323.57091218 Ha       -8804.81250434 eV

  Derived energy quantities:
  | Kinetic energy                :         322.30271481 Ha        8770.30309809 eV
  | Electrostatic energy          :        -603.75422883 Ha      -16428.98846417 eV
  | Energy correction for multipole
  | error in Hartree potential    :           0.01207243 Ha           0.32850746 eV
  | Sum of eigenvalues per atom                           :        -388.18396598 eV
  | Total energy (T->0) per atom                          :        -677.29326956 eV  <-- do not rely on this value for anything but (periodic) metals
  | Electronic free energy per atom                       :        -677.29326956 eV

  Self-consistency convergence accuracy:
  | Change of charge density      :  0.5892E+00
  | Change of sum of eigenvalues  :  0.9211E+02 eV
  | Change of total energy        :  0.5050E+01 eV

  End self-consistency iteration #     1       :  max(cpu_time)    wall_clock(cpu1)
  | Time for this iteration                    :        1.191 s           1.192 s
  | Charge density update                      :        0.394 s           0.394 s
  | Density mixing                             :        0.005 s           0.005 s
  | Hartree multipole update                   :        0.009 s           0.009 s
  | Hartree multipole summation                :        0.283 s           0.284 s
  | Integration                                :        0.497 s           0.497 s
  | Solution of K.-S. eqns.                    :        0.002 s           0.002 s
  | Total energy evaluation                    :        0.000 s           0.000 s

  Partial memory accounting:
  | Current value for overall tracked memory usage on task 0  :           0.165 MB
  | Peak value for overall tracked memory usage on task 0     :           0.695 MB after allocating gradient_basis_wave
  | Largest tracked array allocation on task 0 so far         :           0.397 MB  when allocating gradient_basis_wave
  Note:  These values currently only include a subset of arrays which are explicitly tracked.
  The "true" memory usage will be greater.
------------------------------------------------------------

------------------------------------------------------------
          Begin self-consistency iteration #    2

  Date     :  20200710, Time     :  144753.282
------------------------------------------------------------
  Evaluating new KS density.
  Integration grid: deviation in total charge (<rho> - N_e) =   1.421085E-14
  Pulay mixing of updated and previous charge densities.

  Evaluating partitioned Hartree potential by multipole expansion.
  | Analytical far-field extrapolation by fixed multipoles:
  | Hartree multipole sum: apparent total charge =  -0.382130E-03
  Summing up the Hartree potential.
  Time summed over all CPUs for potential: real work        0.282 s, elapsed        0.282 s
  | RMS charge density error from multipole expansion :   0.139636E-01

  Integrating Hamiltonian matrix: batch-based integration.
  Time summed over all CPUs for integration: real work        0.495 s, elapsed        0.495 s

  Updating Kohn-Sham eigenvalues and eigenvectors using ELSI and the ELPA eigensolver.
  Finished Cholesky decomposition
  | Time :     0.000 s
  Finished transformation to standard eigenproblem
  | Time :     0.000 s
  Starting LAPACK eigensolver
  Finished solving standard eigenproblem
  | Time :     0.002 s
  Finished back-transformation of eigenvectors
  | Time :     0.000 s

  Obtaining occupation numbers and chemical potential using ELSI.
  | Chemical potential (Fermi level):    -3.31163186eV
  Highest occupied state (VBM) at     -6.48916167 eV
  | Occupation number:      2.00000000

  Lowest unoccupied state (CBM) at    -2.35126025 eV
  | Occupation number:      0.00000000

  Overall HOMO-LUMO gap:      4.13790143 eV.

  Checking to see if s.c.f. parameters should be adjusted.

  Total energy components:
  | Sum of eigenvalues            :        -181.91679297 Ha       -4950.20780052 eV
  | XC energy correction          :         -42.47702110 Ha       -1155.85855370 eV
  | XC potential correction       :          54.61388882 Ha        1486.11952782 eV
  | Free-atom electrostatic energy:        -146.85198834 Ha       -3996.04591934 eV
  | Hartree energy correction     :          -6.85888709 Ha        -186.63981386 eV
  | vdW energy correction         :           0.00000000 Ha           0.00000000 eV
  | Entropy correction            :           0.00000000 Ha           0.00000000 eV
  | ---------------------------
  | Total energy                  :        -323.49080068 Ha       -8802.63255961 eV
  | Total energy, T -> 0          :        -323.49080068 Ha       -8802.63255961 eV  <-- do not rely on this value for anything but (periodic) metals
  | Electronic free energy        :        -323.49080068 Ha       -8802.63255961 eV

  Derived energy quantities:
  | Kinetic energy                :         323.61449767 Ha        8805.99852590 eV
  | Electrostatic energy          :        -604.62827725 Ha      -16452.77253181 eV
  | Energy correction for multipole
  | error in Hartree potential    :           0.02637092 Ha           0.71758936 eV
  | Sum of eigenvalues per atom                           :        -380.78521542 eV
  | Total energy (T->0) per atom                          :        -677.12558151 eV  <-- do not rely on this value for anything but (periodic) metals
  | Electronic free energy per atom                       :        -677.12558151 eV

  Self-consistency convergence accuracy:
  | Change of charge density      :  0.3687E+00
  | Change of sum of eigenvalues  :  0.9618E+02 eV
  | Change of total energy        :  0.2180E+01 eV

  End self-consistency iteration #     2       :  max(cpu_time)    wall_clock(cpu1)
  | Time for this iteration                    :        1.182 s           1.183 s
  | Charge density update                      :        0.387 s           0.387 s
  | Density mixing                             :        0.007 s           0.007 s
  | Hartree multipole update                   :        0.009 s           0.009 s
  | Hartree multipole summation                :        0.282 s           0.282 s
  | Integration                                :        0.495 s           0.495 s
  | Solution of K.-S. eqns.                    :        0.002 s           0.003 s
  | Total energy evaluation                    :        0.000 s           0.000 s

  Partial memory accounting:
  | Current value for overall tracked memory usage on task 0  :           0.166 MB
  | Peak value for overall tracked memory usage on task 0     :           0.695 MB after allocating gradient_basis_wave
  | Largest tracked array allocation on task 0 so far         :           0.397 MB  when allocating gradient_basis_wave
  Note:  These values currently only include a subset of arrays which are explicitly tracked.
  The "true" memory usage will be greater.
------------------------------------------------------------

------------------------------------------------------------
          Begin self-consistency iteration #    3

  Date     :  20200710, Time     :  144754.465
------------------------------------------------------------
  Evaluating new KS density.
  Integration grid: deviation in total charge (<rho> - N_e) =  -7.105427E-15
  Pulay mixing of updated and previous charge densities.

  Evaluating partitioned Hartree potential by multipole expansion.
  | Analytical far-field extrapolation by fixed multipoles:
  | Hartree multipole sum: apparent total charge =  -0.475551E-03
  Summing up the Hartree potential.
  Time summed over all CPUs for potential: real work        0.281 s, elapsed        0.281 s
  | RMS charge density error from multipole expansion :   0.218383E-01

  Integrating Hamiltonian matrix: batch-based integration.
  Time summed over all CPUs for integration: real work        0.496 s, elapsed        0.496 s

  Updating Kohn-Sham eigenvalues and eigenvectors using ELSI and the ELPA eigensolver.
  Finished Cholesky decomposition
  | Time :     0.000 s
  Finished transformation to standard eigenproblem
  | Time :     0.000 s
  Starting LAPACK eigensolver
  Finished solving standard eigenproblem
  | Time :     0.001 s
  Finished back-transformation of eigenvectors
  | Time :     0.000 s

  Obtaining occupation numbers and chemical potential using ELSI.
  | Chemical potential (Fermi level):    -2.71929257eV
  Highest occupied state (VBM) at     -5.80511422 eV
  | Occupation number:      2.00000000

  Lowest unoccupied state (CBM) at    -1.69197849 eV
  | Occupation number:      0.00000000

  Overall HOMO-LUMO gap:      4.11313573 eV.

  Total energy components:
  | Sum of eigenvalues            :        -180.60373081 Ha       -4914.47756115 eV
  | XC energy correction          :         -42.62957806 Ha       -1160.00983960 eV
  | XC potential correction       :          54.80862032 Ha        1491.41844153 eV
  | Free-atom electrostatic energy:        -146.85198834 Ha       -3996.04591934 eV
  | Hartree energy correction     :          -8.20079124 Ha        -223.15488373 eV
  | vdW energy correction         :           0.00000000 Ha           0.00000000 eV
  | Entropy correction            :           0.00000000 Ha           0.00000000 eV
  | ---------------------------
  | Total energy                  :        -323.47746813 Ha       -8802.26976229 eV
  | Total energy, T -> 0          :        -323.47746813 Ha       -8802.26976229 eV  <-- do not rely on this value for anything but (periodic) metals
  | Electronic free energy        :        -323.47746813 Ha       -8802.26976229 eV

  Derived energy quantities:
  | Kinetic energy                :         323.23975205 Ha        8795.80117872 eV
  | Electrostatic energy          :        -604.08764212 Ha      -16438.06110142 eV
  | Energy correction for multipole
  | error in Hartree potential    :           0.03693797 Ha           1.00513335 eV
  | Sum of eigenvalues per atom                           :        -378.03673547 eV
  | Total energy (T->0) per atom                          :        -677.09767402 eV  <-- do not rely on this value for anything but (periodic) metals
  | Electronic free energy per atom                       :        -677.09767402 eV

  Self-consistency convergence accuracy:
  | Change of charge density      :  0.2072E+00
  | Change of sum of eigenvalues  :  0.3573E+02 eV
  | Change of total energy        :  0.3628E+00 eV

  End self-consistency iteration #     3       :  max(cpu_time)    wall_clock(cpu1)
  | Time for this iteration                    :        1.182 s           1.184 s
  | Charge density update                      :        0.385 s           0.386 s
  | Density mixing                             :        0.008 s           0.008 s
  | Hartree multipole update                   :        0.009 s           0.009 s
  | Hartree multipole summation                :        0.282 s           0.282 s
  | Integration                                :        0.496 s           0.496 s
  | Solution of K.-S. eqns.                    :        0.002 s           0.002 s
  | Total energy evaluation                    :        0.000 s           0.000 s

  Partial memory accounting:
  | Current value for overall tracked memory usage on task 0  :           0.166 MB
  | Peak value for overall tracked memory usage on task 0     :           0.695 MB after allocating gradient_basis_wave
  | Largest tracked array allocation on task 0 so far         :           0.397 MB  when allocating gradient_basis_wave
  Note:  These values currently only include a subset of arrays which are explicitly tracked.
  The "true" memory usage will be greater.
------------------------------------------------------------

------------------------------------------------------------
          Begin self-consistency iteration #    4

  Date     :  20200710, Time     :  144755.649
------------------------------------------------------------
  Evaluating new KS density.
  Integration grid: deviation in total charge (<rho> - N_e) =   1.421085E-14
  Pulay mixing of updated and previous charge densities.

  Evaluating partitioned Hartree potential by multipole expansion.
  | Analytical far-field extrapolation by fixed multipoles:
  | Hartree multipole sum: apparent total charge =  -0.508310E-03
  Summing up the Hartree potential.
  Time summed over all CPUs for potential: real work        0.282 s, elapsed        0.282 s
  | RMS charge density error from multipole expansion :   0.254263E-01

  Integrating Hamiltonian matrix: batch-based integration.
  Time summed over all CPUs for integration: real work        0.504 s, elapsed        0.504 s

  Updating Kohn-Sham eigenvalues and eigenvectors using ELSI and the ELPA eigensolver.
  Finished Cholesky decomposition
  | Time :     0.000 s
  Finished transformation to standard eigenproblem
  | Time :     0.000 s
  Starting LAPACK eigensolver
  Finished solving standard eigenproblem
  | Time :     0.001 s
  Finished back-transformation of eigenvectors
  | Time :     0.000 s

  Obtaining occupation numbers and chemical potential using ELSI.
  | Chemical potential (Fermi level):    -2.60756865eV
  Highest occupied state (VBM) at     -5.64124506 eV
  | Occupation number:      2.00000000

  Lowest unoccupied state (CBM) at    -1.58777876 eV
  | Occupation number:      0.00000000

  Overall HOMO-LUMO gap:      4.05346630 eV.

  Total energy components:
  | Sum of eigenvalues            :        -180.45802312 Ha       -4910.51265326 eV
  | XC energy correction          :         -42.66845832 Ha       -1161.06782540 eV
  | XC potential correction       :          54.85751304 Ha        1492.74888002 eV
  | Free-atom electrostatic energy:        -146.85198834 Ha       -3996.04591934 eV
  | Hartree energy correction     :          -8.35543801 Ha        -227.36303626 eV
  | vdW energy correction         :           0.00000000 Ha           0.00000000 eV
  | Entropy correction            :           0.00000000 Ha           0.00000000 eV
  | ---------------------------
  | Total energy                  :        -323.47639475 Ha       -8802.24055425 eV
  | Total energy, T -> 0          :        -323.47639475 Ha       -8802.24055425 eV  <-- do not rely on this value for anything but (periodic) metals
  | Electronic free energy        :        -323.47639475 Ha       -8802.24055425 eV

  Derived energy quantities:
  | Kinetic energy                :         322.82961595 Ha        8784.64080769 eV
  | Electrostatic energy          :        -603.63755238 Ha      -16425.81353654 eV
  | Energy correction for multipole
  | error in Hartree potential    :           0.04118541 Ha           1.12071204 eV
  | Sum of eigenvalues per atom                           :        -377.73174256 eV
  | Total energy (T->0) per atom                          :        -677.09542725 eV  <-- do not rely on this value for anything but (periodic) metals
  | Electronic free energy per atom                       :        -677.09542725 eV

  Self-consistency convergence accuracy:
  | Change of charge density      :  0.6982E-01
  | Change of sum of eigenvalues  :  0.3965E+01 eV
  | Change of total energy        :  0.2921E-01 eV

  End self-consistency iteration #     4       :  max(cpu_time)    wall_clock(cpu1)
  | Time for this iteration                    :        1.188 s           1.196 s
  | Charge density update                      :        0.387 s           0.387 s
  | Density mixing                             :        0.010 s           0.010 s
  | Hartree multipole update                   :        0.009 s           0.009 s
  | Hartree multipole summation                :        0.283 s           0.283 s
  | Integration                                :        0.497 s           0.504 s
  | Solution of K.-S. eqns.                    :        0.002 s           0.002 s
  | Total energy evaluation                    :        0.000 s           0.000 s

  Partial memory accounting:
  | Current value for overall tracked memory usage on task 0  :           0.166 MB
  | Peak value for overall tracked memory usage on task 0     :           0.696 MB after allocating gradient_basis_wave
  | Largest tracked array allocation on task 0 so far         :           0.397 MB  when allocating gradient_basis_wave
  Note:  These values currently only include a subset of arrays which are explicitly tracked.
  The "true" memory usage will be greater.
------------------------------------------------------------

------------------------------------------------------------
          Begin self-consistency iteration #    5

  Date     :  20200710, Time     :  144756.845
------------------------------------------------------------
  Evaluating new KS density.
  Integration grid: deviation in total charge (<rho> - N_e) =   2.842171E-14
  Pulay mixing of updated and previous charge densities.

  Evaluating partitioned Hartree potential by multipole expansion.
  | Analytical far-field extrapolation by fixed multipoles:
  | Hartree multipole sum: apparent total charge =  -0.502314E-03
  Summing up the Hartree potential.
  Time summed over all CPUs for potential: real work        0.282 s, elapsed        0.282 s
  | RMS charge density error from multipole expansion :   0.252054E-01

  Integrating Hamiltonian matrix: batch-based integration.
  Time summed over all CPUs for integration: real work        0.497 s, elapsed        0.497 s

  Updating Kohn-Sham eigenvalues and eigenvectors using ELSI and the ELPA eigensolver.
  Finished Cholesky decomposition
  | Time :     0.000 s
  Finished transformation to standard eigenproblem
  | Time :     0.000 s
  Starting LAPACK eigensolver
  Finished solving standard eigenproblem
  | Time :     0.001 s
  Finished back-transformation of eigenvectors
  | Time :     0.000 s

  Obtaining occupation numbers and chemical potential using ELSI.
  | Chemical potential (Fermi level):    -2.66214906eV
  Highest occupied state (VBM) at     -5.72562642 eV
  | Occupation number:      2.00000000

  Lowest unoccupied state (CBM) at    -1.68533695 eV
  | Occupation number:      0.00000000

  Overall HOMO-LUMO gap:      4.04028947 eV.

  Total energy components:
  | Sum of eigenvalues            :        -180.66350637 Ha       -4916.10413705 eV
  | XC energy correction          :         -42.64307046 Ha       -1160.37698663 eV
  | XC potential correction       :          54.82457496 Ha        1491.85258930 eV
  | Free-atom electrostatic energy:        -146.85198834 Ha       -3996.04591934 eV
  | Hartree energy correction     :          -8.14211836 Ha        -221.55831334 eV
  | vdW energy correction         :           0.00000000 Ha           0.00000000 eV
  | Entropy correction            :           0.00000000 Ha           0.00000000 eV
  | ---------------------------
  | Total energy                  :        -323.47610858 Ha       -8802.23276706 eV
  | Total energy, T -> 0          :        -323.47610858 Ha       -8802.23276706 eV  <-- do not rely on this value for anything but (periodic) metals
  | Electronic free energy        :        -323.47610858 Ha       -8802.23276706 eV

  Derived energy quantities:
  | Kinetic energy                :         322.70455169 Ha        8781.23763597 eV
  | Electrostatic energy          :        -603.53758981 Ha      -16423.09341640 eV
  | Energy correction for multipole
  | error in Hartree potential    :           0.04053533 Ha           1.10302239 eV
  | Sum of eigenvalues per atom                           :        -378.16185670 eV
  | Total energy (T->0) per atom                          :        -677.09482824 eV  <-- do not rely on this value for anything but (periodic) metals
  | Electronic free energy per atom                       :        -677.09482824 eV

  Self-consistency convergence accuracy:
  | Change of charge density      :  0.2060E-01
  | Change of sum of eigenvalues  : -0.5591E+01 eV
  | Change of total energy        :  0.7787E-02 eV

  End self-consistency iteration #     5       :  max(cpu_time)    wall_clock(cpu1)
  | Time for this iteration                    :        1.189 s           1.191 s
  | Charge density update                      :        0.388 s           0.388 s
  | Density mixing                             :        0.011 s           0.012 s
  | Hartree multipole update                   :        0.009 s           0.009 s
  | Hartree multipole summation                :        0.282 s           0.282 s
  | Integration                                :        0.497 s           0.497 s
  | Solution of K.-S. eqns.                    :        0.002 s           0.002 s
  | Total energy evaluation                    :        0.000 s           0.000 s

  Partial memory accounting:
  | Current value for overall tracked memory usage on task 0  :           0.166 MB
  | Peak value for overall tracked memory usage on task 0     :           0.696 MB after allocating gradient_basis_wave
  | Largest tracked array allocation on task 0 so far         :           0.397 MB  when allocating gradient_basis_wave
  Note:  These values currently only include a subset of arrays which are explicitly tracked.
  The "true" memory usage will be greater.
------------------------------------------------------------

------------------------------------------------------------
          Begin self-consistency iteration #    6

  Date     :  20200710, Time     :  144758.036
------------------------------------------------------------
  Evaluating new KS density.
  Integration grid: deviation in total charge (<rho> - N_e) =   2.842171E-14
  Pulay mixing of updated and previous charge densities.

  Evaluating partitioned Hartree potential by multipole expansion.
  | Analytical far-field extrapolation by fixed multipoles:
  | Hartree multipole sum: apparent total charge =  -0.506680E-03
  Summing up the Hartree potential.
  Time summed over all CPUs for potential: real work        0.282 s, elapsed        0.282 s
  | RMS charge density error from multipole expansion :   0.256907E-01

  Integrating Hamiltonian matrix: batch-based integration.
  Time summed over all CPUs for integration: real work        0.498 s, elapsed        0.498 s

  Updating Kohn-Sham eigenvalues and eigenvectors using ELSI and the ELPA eigensolver.
  Finished Cholesky decomposition
  | Time :     0.000 s
  Finished transformation to standard eigenproblem
  | Time :     0.000 s
  Starting LAPACK eigensolver
  Finished solving standard eigenproblem
  | Time :     0.002 s
  Finished back-transformation of eigenvectors
  | Time :     0.000 s

  Obtaining occupation numbers and chemical potential using ELSI.
  | Chemical potential (Fermi level):    -2.64908047eV
  Highest occupied state (VBM) at     -5.68120072 eV
  | Occupation number:      2.00000000

  Lowest unoccupied state (CBM) at    -1.69084789 eV
  | Occupation number:      0.00000000

  Overall HOMO-LUMO gap:      3.99035283 eV.

  Total energy components:
  | Sum of eigenvalues            :        -180.64071148 Ha       -4915.48385643 eV
  | XC energy correction          :         -42.64523866 Ha       -1160.43598620 eV
  | XC potential correction       :          54.82736446 Ha        1491.92849544 eV
  | Free-atom electrostatic energy:        -146.85198834 Ha       -3996.04591934 eV
  | Hartree energy correction     :          -8.16549340 Ha        -222.19438053 eV
  | vdW energy correction         :           0.00000000 Ha           0.00000000 eV
  | Entropy correction            :           0.00000000 Ha           0.00000000 eV
  | ---------------------------
  | Total energy                  :        -323.47606742 Ha       -8802.23164707 eV
  | Total energy, T -> 0          :        -323.47606742 Ha       -8802.23164707 eV  <-- do not rely on this value for anything but (periodic) metals
  | Electronic free energy        :        -323.47606742 Ha       -8802.23164707 eV

  Derived energy quantities:
  | Kinetic energy                :         322.63491281 Ha        8779.34266549 eV
  | Electrostatic energy          :        -603.46574157 Ha      -16421.13832635 eV
  | Energy correction for multipole
  | error in Hartree potential    :           0.04098393 Ha           1.11522956 eV
  | Sum of eigenvalues per atom                           :        -378.11414280 eV
  | Total energy (T->0) per atom                          :        -677.09474208 eV  <-- do not rely on this value for anything but (periodic) metals
  | Electronic free energy per atom                       :        -677.09474208 eV

  Self-consistency convergence accuracy:
  | Change of charge density      :  0.1090E-01
  | Change of sum of eigenvalues  :  0.6203E+00 eV
  | Change of total energy        :  0.1120E-02 eV

  End self-consistency iteration #     6       :  max(cpu_time)    wall_clock(cpu1)
  | Time for this iteration                    :        1.191 s           1.192 s
  | Charge density update                      :        0.388 s           0.388 s
  | Density mixing                             :        0.012 s           0.012 s
  | Hartree multipole update                   :        0.009 s           0.009 s
  | Hartree multipole summation                :        0.282 s           0.282 s
  | Integration                                :        0.498 s           0.498 s
  | Solution of K.-S. eqns.                    :        0.002 s           0.002 s
  | Total energy evaluation                    :        0.000 s           0.000 s

  Partial memory accounting:
  | Current value for overall tracked memory usage on task 0  :           0.166 MB
  | Peak value for overall tracked memory usage on task 0     :           0.696 MB after allocating gradient_basis_wave
  | Largest tracked array allocation on task 0 so far         :           0.397 MB  when allocating gradient_basis_wave
  Note:  These values currently only include a subset of arrays which are explicitly tracked.
  The "true" memory usage will be greater.
------------------------------------------------------------

------------------------------------------------------------
          Begin self-consistency iteration #    7

  Date     :  20200710, Time     :  144759.229
------------------------------------------------------------
  Evaluating new KS density.
  Integration grid: deviation in total charge (<rho> - N_e) =  -1.421085E-14
  Pulay mixing of updated and previous charge densities.

  Evaluating partitioned Hartree potential by multipole expansion.
  | Analytical far-field extrapolation by fixed multipoles:
  | Hartree multipole sum: apparent total charge =  -0.507152E-03
  Summing up the Hartree potential.
  Time summed over all CPUs for potential: real work        0.281 s, elapsed        0.281 s
  | RMS charge density error from multipole expansion :   0.257786E-01

  Integrating Hamiltonian matrix: batch-based integration.
  Time summed over all CPUs for integration: real work        0.494 s, elapsed        0.494 s

  Updating Kohn-Sham eigenvalues and eigenvectors using ELSI and the ELPA eigensolver.
  Finished Cholesky decomposition
  | Time :     0.000 s
  Finished transformation to standard eigenproblem
  | Time :     0.000 s
  Starting LAPACK eigensolver
  Finished solving standard eigenproblem
  | Time :     0.001 s
  Finished back-transformation of eigenvectors
  | Time :     0.000 s

[...]
  |   Hirshfeld dipole moment :      0.05526946
  |   Hirshfeld second moments:      0.01758218      -0.03186649      -0.01906908
  |                                 -0.03186649      -0.01998158       0.00832945
  |                                 -0.01906908       0.00832945      -0.01346272
  ----------------------------------------------------------------------
  | Atom    12: O
  |   Hirshfeld charge        :     -0.15382474
  |   Free atom volume        :     23.61338643
  |   Hirshfeld volume        :     20.71027811
  |   Hirshfeld dipole vector :      0.00332549       0.04443345       0.00350529
  |   Hirshfeld dipole moment :      0.04469539
  |   Hirshfeld second moments:      0.11540328      -0.00727296      -0.00165773
  |                                 -0.00727296       0.03248313       0.00895586
  |                                 -0.00165773       0.00895586       0.04129714
  ----------------------------------------------------------------------
  | Atom    13: H
  |   Hirshfeld charge        :      0.19176343
  |   Free atom volume        :      9.95071624
  |   Hirshfeld volume        :      5.99016584
  |   Hirshfeld dipole vector :     -0.11998118       0.04426993       0.01346805
  |   Hirshfeld dipole moment :      0.12859509
  |   Hirshfeld second moments:      0.12736165       0.00396524      -0.00153323
  |                                  0.00396524       0.11392711       0.00622472
  |                                 -0.00153323       0.00622472       0.12075309
  ----------------------------------------------------------------------


  Total energy components:
  | Sum of eigenvalues            :        -180.64271085 Ha       -4915.53826207 eV
  | XC energy correction          :         -42.64170376 Ha       -1160.33979674 eV
  | XC potential correction       :          54.82287709 Ha        1491.80638791 eV
  | Free-atom electrostatic energy:        -146.85198834 Ha       -3996.04591934 eV
  | Hartree energy correction     :          -8.16251708 Ha        -222.11339088 eV
  | vdW energy correction         :          -0.00331088 Ha          -0.09009376 eV
  | Entropy correction            :           0.00000000 Ha           0.00000000 eV
  | ---------------------------
  | Total energy                  :        -323.47935383 Ha       -8802.32107488 eV
  | Total energy, T -> 0          :        -323.47935383 Ha       -8802.32107488 eV  <-- do not rely on this value for anything but (periodic) metals
  | Electronic free energy        :        -323.47935383 Ha       -8802.32107488 eV

  Derived energy quantities:
  | Kinetic energy                :         322.59801964 Ha        8778.33875139 eV
  | Electrostatic energy          :        -603.43235883 Ha      -16420.22993577 eV
  | Energy correction for multipole
  | error in Hartree potential    :           0.04098430 Ha           1.11523957 eV
  | Sum of eigenvalues per atom                           :        -378.11832785 eV
  | Total energy (T->0) per atom                          :        -677.10162114 eV  <-- do not rely on this value for anything but (periodic) metals
  | Electronic free energy per atom                       :        -677.10162114 eV

  atomic forces [eV/Ang]:
  -----------------------
  atom #    1
   Hellmann-Feynman              :  0.724405E+00  0.644395E-01  0.896417E+00
   Ionic forces                  :  0.000000E+00  0.000000E+00  0.000000E+00
   Multipole                     :  0.114505E+00  0.185206E+00 -0.249584E+00
   Pulay + GGA                   : -0.107820E+01 -0.853910E-01 -0.122043E+01
   Van der Waals                 :  0.565172E-02  0.435154E-02 -0.180684E-02
   ----------------------------------------------------------------
   Total forces(   1)            : -0.233639E+00  0.168606E+00 -0.575401E+00
  atom #    2
   Hellmann-Feynman              :  0.341058E+00  0.239403E-02  0.199007E+00
   Ionic forces                  :  0.000000E+00  0.000000E+00  0.000000E+00
   Multipole                     :  0.169950E+00  0.144489E-01 -0.308866E-02
   Pulay + GGA                   : -0.135143E+00  0.747119E-02  0.268875E-01
   Van der Waals                 :  0.683925E-02 -0.366312E-02 -0.397245E-02
   ----------------------------------------------------------------
   Total forces(   2)            :  0.382705E+00  0.206510E-01  0.218833E+00
  atom #    3
   Hellmann-Feynman              : -0.834742E+01  0.762722E+01  0.895261E-01
   Ionic forces                  :  0.000000E+00  0.000000E+00  0.000000E+00
   Multipole                     : -0.178249E+00  0.209648E+00 -0.112242E+01
   Pulay + GGA                   :  0.858899E+01 -0.749688E+01  0.159967E+01
   Van der Waals                 :  0.687378E-02 -0.136350E-02 -0.118780E-01
   ----------------------------------------------------------------
   Total forces(   3)            :  0.701927E-01  0.338629E+00  0.554901E+00
  atom #    4
   Hellmann-Feynman              :  0.964970E-02 -0.191743E+00 -0.155142E+00
   Ionic forces                  :  0.000000E+00  0.000000E+00  0.000000E+00
   Multipole                     :  0.261648E-01 -0.231061E-02 -0.108606E+00
   Pulay + GGA                   : -0.207938E+00  0.251978E-01  0.131364E+00
   Van der Waals                 : -0.383726E-02 -0.155777E-02  0.572433E-02
   ----------------------------------------------------------------
   Total forces(   4)            : -0.175961E+00 -0.170413E+00 -0.126660E+00
  atom #    5
   Hellmann-Feynman              :  0.219225E+00 -0.247574E+00 -0.272684E+00
   Ionic forces                  :  0.000000E+00  0.000000E+00  0.000000E+00
   Multipole                     : -0.336242E-01 -0.721043E-01 -0.793861E-01
   Pulay + GGA                   :  0.340330E-01  0.199826E+00  0.678887E-01
   Van der Waals                 : -0.662930E-03  0.431673E-02 -0.343685E-03
   ----------------------------------------------------------------
   Total forces(   5)            :  0.218970E+00 -0.115535E+00 -0.284525E+00
  atom #    6
   Hellmann-Feynman              :  0.124088E+00 -0.550063E+00  0.607677E+00
   Ionic forces                  :  0.000000E+00  0.000000E+00  0.000000E+00
   Multipole                     : -0.122359E+00  0.602336E+00  0.226094E+00
   Pulay + GGA                   :  0.176974E+00 -0.400128E+00 -0.610978E+00
   Van der Waals                 : -0.543794E-02  0.257697E-02 -0.402251E-02
   ----------------------------------------------------------------
   Total forces(   6)            :  0.173265E+00 -0.345278E+00  0.218770E+00
  atom #    7
   Hellmann-Feynman              : -0.220049E+00 -0.453412E-01 -0.657572E-01
   Ionic forces                  :  0.000000E+00  0.000000E+00  0.000000E+00
   Multipole                     : -0.118372E+00  0.507174E-01  0.243710E-01
   Pulay + GGA                   :  0.117589E+00  0.310615E-01 -0.257743E-01
   Van der Waals                 : -0.159802E-02 -0.123420E-02  0.240539E-02
   ----------------------------------------------------------------
   Total forces(   7)            : -0.222430E+00  0.352035E-01 -0.647551E-01
  atom #    8
   Hellmann-Feynman              :  0.943538E-01 -0.258714E-01  0.173970E+00
   Ionic forces                  :  0.000000E+00  0.000000E+00  0.000000E+00
   Multipole                     :  0.140783E-01  0.631898E-01  0.124469E+00
   Pulay + GGA                   : -0.359648E-01 -0.352975E-01 -0.855905E-01
   Van der Waals                 : -0.283834E-02  0.112066E-01  0.143971E-02
   ----------------------------------------------------------------
   Total forces(   8)            :  0.696290E-01  0.132275E-01  0.214288E+00
  atom #    9
   Hellmann-Feynman              :  0.762035E-01  0.312399E-01 -0.182354E+00
   Ionic forces                  :  0.000000E+00  0.000000E+00  0.000000E+00
   Multipole                     :  0.151452E-01  0.128361E+00 -0.144035E-01
   Pulay + GGA                   : -0.616788E-01 -0.935753E-01  0.413065E-01
   Van der Waals                 : -0.182985E-02  0.205314E-02  0.262964E-02
   ----------------------------------------------------------------
   Total forces(   9)            :  0.278401E-01  0.680792E-01 -0.152821E+00
  atom #   10
   Hellmann-Feynman              :  0.342303E+01  0.552032E+01  0.230685E+01
   Ionic forces                  :  0.000000E+00  0.000000E+00  0.000000E+00
   Multipole                     :  0.163226E+00 -0.448644E-01  0.248421E+00
   Pulay + GGA                   : -0.109530E+01 -0.335893E+01 -0.525016E+00
   Van der Waals                 :  0.367843E-02 -0.115488E-01 -0.133370E-02
   ----------------------------------------------------------------
   Total forces(  10)            :  0.249463E+01  0.210497E+01  0.202892E+01
  atom #   11
   Hellmann-Feynman              :  0.378866E+01 -0.223975E+01  0.137539E+02
   Ionic forces                  :  0.000000E+00  0.000000E+00  0.000000E+00
   Multipole                     :  0.124021E+00 -0.637284E+00  0.732489E+00
   Pulay + GGA                   : -0.309130E+01  0.353617E+01 -0.136290E+02
   Van der Waals                 : -0.619783E-03 -0.119551E-01  0.329281E-02
   ----------------------------------------------------------------
   Total forces(  11)            :  0.820756E+00  0.647177E+00  0.860724E+00
  atom #   12
   Hellmann-Feynman              :  0.147435E+01 -0.127168E+02 -0.893556E+01
   Ionic forces                  :  0.000000E+00  0.000000E+00  0.000000E+00
   Multipole                     : -0.654429E+00 -0.152905E+01 -0.340874E+00
   Pulay + GGA                   : -0.348933E+01  0.120997E+02  0.697882E+01
   Van der Waals                 :  0.153713E-02  0.713811E-02  0.326696E-02
   ----------------------------------------------------------------
   Total forces(  12)            : -0.266787E+01 -0.213898E+01 -0.229435E+01
  atom #   13
   Hellmann-Feynman              : -0.125057E+01 -0.412891E+00 -0.580184E+00
   Ionic forces                  :  0.000000E+00  0.000000E+00  0.000000E+00
   Multipole                     : -0.556655E-01  0.129864E-01  0.157108E-01
   Pulay + GGA                   :  0.351757E+00 -0.226779E+00 -0.415171E-01
   Van der Waals                 : -0.775619E-02 -0.320553E-03  0.459834E-02
   ----------------------------------------------------------------
   Total forces(  13)            : -0.962233E+00 -0.627004E+00 -0.601392E+00

  Timings for VdW correction (Tkatchenko-Scheffler 2009 or later):
  | CPU time:        0.090 s, Wall clock time:        0.090 s.
  Removing unitary transformations (pure translations, rotations) from forces on atoms.
  Atomic forces before filtering:
  | Net force on center of mass :  -0.414560E-02 -0.672929E-03 -0.346398E-02 eV/A
  | Net torque on center of mass:  -0.722534E-02  0.155101E-02 -0.119242E-01 eV
  Atomic forces after filtering:
  | Net force on center of mass :   0.000000E+00  0.356812E-15 -0.892031E-16 eV/A
  | Net torque on center of mass:   0.672660E-15  0.377634E-15 -0.944085E-15 eV

  Energy and forces in a compact form:
  | Total energy uncorrected      :         -0.880232107488356E+04 eV
  | Total energy corrected        :         -0.880232107488356E+04 eV  <-- do not rely on this value for anything but (periodic) metals
  | Electronic free energy        :         -0.880232107488356E+04 eV
  Total atomic forces (unitary forces cleaned) [eV/Ang]:
  |   1         -0.233363560108231E+00          0.168854608654115E+00         -0.575108116473869E+00
  |   2          0.382980460470057E+00          0.213330143668138E-01          0.219142777344791E+00
  |   3          0.704893582564639E-01          0.338936617049507E+00          0.555186774615897E+00
  |   4         -0.175731192108574E+00         -0.169682873779785E+00         -0.126327795405854E+00
  |   5          0.219632531180194E+00         -0.115346668768659E+00         -0.284406307483585E+00
  |   6          0.173029432760894E+00         -0.345354825265446E+00          0.219278934803541E+00
  |   7         -0.222676951896864E+00          0.346914130445428E-01         -0.642580544013008E-01
  |   8          0.693732462164089E-01          0.131125167961719E-01          0.214804371117985E+00
  |   9          0.272557777475532E-01          0.682352518624196E-01         -0.152148661649470E+00
  |  10          0.249540564446678E+01          0.210493079122076E+01          0.202898021752952E+01
  |  11          0.821623668319907E+00          0.647052861637237E+00          0.860739627441154E+00
  |  12         -0.266674844024126E+01         -0.213918449617102E+01         -0.229444748207603E+01
  |  13         -0.961269975063335E+00         -0.627578210646660E+00         -0.601436285362782E+00

  ------------------------------------ 
  Start decomposition of the XC Energy 
  ------------------------------------ 
  X and C from original XC functional choice 
  Hartree-Fock Energy :          0.000000000 Ha              0.000000000 eV
  X Energy            :        -41.040611220 Ha          -1116.771852028 eV
  C Energy            :         -1.601092539 Ha            -43.567944707 eV
  Total XC Energy     :        -42.641703760 Ha          -1160.339796735 eV
  ------------------------------------ 
  LDA X and C from self-consistent density 
  X Energy LDA        :        -37.259985172 Ha          -1013.895782980 eV
  C Energy LDA        :         -3.138827365 Ha            -85.411838316 eV
  ------------------------------------ 
  End decomposition of the XC Energy 
  ------------------------------------ 

------------------------------------------------------------

------------------------------------------------------------------------------
  Final output of selected total energy values:

  The following output summarizes some interesting total energy values
  at the end of a run (AFTER all relaxation, molecular dynamics, etc.).

  | Total energy of the DFT / Hartree-Fock s.c.f. calculation      :          -8802.321074884 eV
  | Final zero-broadening corrected energy (caution - metals only) :          -8802.321074884 eV
  | For reference only, the value of 1 Hartree used in FHI-aims is :             27.211384500 eV

  Before relying on these values, please be sure to understand exactly which
  total energy value is referred to by a given number. Different objects may
  all carry the same name 'total energy'. Definitions:

  Total energy of the DFT / Hartree-Fock s.c.f. calculation:
  | Note that this energy does not include ANY quantities calculated after the
  | s.c.f. cycle, in particular not ANY RPA, MP2, etc. many-body perturbation terms.

  Final zero-broadening corrected energy:
  | For metallic systems only, a broadening of the occupation numbers at the Fermi
  | level can be extrapolated back to zero broadening by an electron-gas inspired
  | formula. For all systems that are not real metals, this value can be
  | meaningless and should be avoided.

------------------------------------------------------------------------------
  Methods described in the following list of references were used in this FHI-aims run.
  If you publish the results, please make sure to cite these reference if they apply.
  FHI-aims is an academic code, and for our developers (often, Ph.D. students
  and postdocs), scientific credit in the community is essential.
  Thank you for helping us!

  For any use of FHI-aims, please cite:

    Volker Blum, Ralf Gehrke, Felix Hanke, Paula Havu, Ville Havu,
    Xinguo Ren, Karsten Reuter, and Matthias Scheffler
    'Ab initio molecular simulations with numeric atom-centered orbitals'
    Computer Physics Communications 180, 2175-2196 (2009)
    http://dx.doi.org/10.1016/j.cpc.2009.06.022


  The scalable eigensolver library ELPA was used in your run.
  ELPA is essential especially for large systems on hundreds or thousands of CPUs.
  For ELPA, please cite:

    Andreas Marek, Volker Blum, Rainer Johanni, Ville Havu, Bruno Lang,
    Thomas Auckenthaler, Alexander Heinecke, Hans-Joachim Bungartz, and Hermann Lederer,
    'The ELPA Library - Scalable Parallel Eigenvalue Solutions
    for Electronic Structure Theory and Computational Science'
    The Journal of Physics: Condensed Matter 26, 213201 (2014).
    http://dx.doi.org/10.1088/0953-8984/26/21/213201


  The ELSI infrastructure was used in your run to solve the Kohn-Sham electronic structure.
  Please check out http://elsi-interchange.org to learn more.
  If scalability is important for your project, please acknowledge ELSI by citing:

    V. W-z. Yu, F. Corsetti, A. Garcia, W. P. Huhn, M. Jacquelin, W. Jia,
    B. Lange, L. Lin, J. Lu, W. Mi, A. Seifitokaldani, A. Vazquez-Mayagoitia,
    C. Yang, H. Yang, and V. Blum
    'ELSI: A unified software interface for Kohn-Sham electronic structure solvers'
    Computer Physics Communications 222, 267-285 (2018).
    http://dx.doi.org/10.1016/j.cpc.2017.09.007


  For the real-space grid partitioning and parallelization used in this calculation, please cite:

    Ville Havu, Volker Blum, Paula Havu, and Matthias Scheffler,
    'Efficient O(N) integration for all-electron electronic structure calculation'
    'using numerically tabulated basis functions'
    Journal of Computational Physics 228, 8367-8379 (2009).
    http://dx.doi.org/10.1016/j.jcp.2009.08.008

  Of course, there are many other important community references, e.g., those cited in the
  above references. Our list is limited to references that describe implementations in the
  FHI-aims code. The reason is purely practical (length of this list) - please credit others as well.

------------------------------------------------------------
          Leaving FHI-aims.
          Date     :  20200710, Time     :  144813.495

          Computational steps:
          | Number of self-consistency cycles          :           16
          | Number of SCF (re)initializations          :            1

          Detailed time accounting                     :  max(cpu_time)    wall_clock(cpu1)
          | Total time                                 :       22.674 s          22.724 s
          | Preparation time                           :        0.146 s           0.147 s
          | Boundary condition initalization           :        0.000 s           0.000 s
          | Grid partitioning                          :        0.111 s           0.112 s
          | Preloading free-atom quantities on grid    :        0.002 s           0.003 s
          | Free-atom superposition energy             :        0.084 s           0.084 s
          | Total time for integrations                :        8.640 s           8.650 s
          | Total time for solution of K.-S. equations :        0.036 s           0.039 s
          | Total time for density & force components  :        7.130 s           7.141 s
          | Total time for mixing                      :        0.214 s           0.217 s
          | Total time for Hartree multipole update    :        0.142 s           0.146 s
          | Total time for Hartree multipole sum       :        5.772 s           5.774 s
          | Total time for total energy evaluation     :        0.003 s           0.004 s
          | Total time for vdW correction              :        0.090 s           0.090 s

          Partial memory accounting:
          | Residual value for overall tracked memory usage across tasks :           0.000 MB (should be 0.000 MB)
          | Peak values for overall tracked memory usage (after allocating hessian_basis_wave):
          |   Minimum:        1.622 MB (on task 1)
          |   Maximum:        1.622 MB (on task 1)
          |   Average:        1.622 MB
          | Largest tracked array allocation (hessian_basis_wave):
          |   Minimum:        0.794 MB (on task 1)
          |   Maximum:        0.794 MB (on task 1)
          |   Average:        0.794 MB
          Note:  These values currently only include a subset of arrays which are explicitly tracked.
          The "true" memory usage will be greater.

          Have a nice day.
------------------------------------------------------------
