  MPI-parallelism will be employed.
------------------------------------------------------------
          Invoking FHI-aims ...
          Version 171221_1
          Compiled on 2019/09/09 at 14:39:39 on host puhti-login2.bullx.

          When using FHI-aims, please cite the following reference:

          Volker Blum, Ralf Gehrke, Felix Hanke, Paula Havu,
          Ville Havu, Xinguo Ren, Karsten Reuter, and Matthias Scheffler,
          'Ab Initio Molecular Simulations with Numeric Atom-Centered Orbitals',
          Computer Physics Communications 180, 2175-2196 (2009)

          For any questions about FHI-aims, please visit the aimsclub website
          with its forums and wiki. Contributions to both the forums and the
          wiki are warmly encouraged - they are for you, and everyone is welcome there.

------------------------------------------------------------



  Date     :  20200601, Time     :  011336.175
  Time zero on CPU 1             :   0.277090000000000E-01  s.
  Internal wall clock time zero  :           360206016.175  s.

  FHI-aims created a unique identifier for this run for later identification
  aims_uuid : F4A28BD9-4D25-448A-A808-2D3200CFEA9E

  Using       20 parallel tasks.
  Task        0 on host r02c46.bullx reporting.
  Task        1 on host r02c46.bullx reporting.
  Task        2 on host r02c46.bullx reporting.
  Task        3 on host r02c46.bullx reporting.
  Task        4 on host r02c46.bullx reporting.
  Task        5 on host r02c46.bullx reporting.
  Task        6 on host r02c46.bullx reporting.
  Task        7 on host r02c46.bullx reporting.
  Task        8 on host r02c46.bullx reporting.
  Task        9 on host r02c46.bullx reporting.
  Task       10 on host r02c46.bullx reporting.
  Task       11 on host r02c46.bullx reporting.
  Task       12 on host r02c46.bullx reporting.
  Task       13 on host r02c46.bullx reporting.
  Task       14 on host r02c46.bullx reporting.
  Task       15 on host r02c46.bullx reporting.
  Task       16 on host r02c46.bullx reporting.
  Task       17 on host r02c46.bullx reporting.
  Task       18 on host r02c46.bullx reporting.
  Task       19 on host r02c46.bullx reporting.

  Performing system and environment tests:
  | Environment variable OMP_NUM_THREADS correctly set to 1.
  | Stacksize not measured: no C compiler
  | Checking for scalapack...
  | Testing pdtran()...
  | All pdtran() tests passed.

  Obtaining array dimensions for all initial allocations:
  
  -----------------------------------------------------------------------
  Parsing control.in (first pass over file, find array dimensions only).
  The contents of control.in will be repeated verbatim below
  unless switched off by setting 'verbatim_writeout .false.' .
  in the first line of control.in .
  -----------------------------------------------------------------------
  
  #########################################################################################
  #
  #  Volker Blum, FHI 2009 : Test run input file control.in for simple H2O
  #
  #########################################################################################
  #
  #  Physical model
  #
    xc                 pbe
    vdw_correction_hirshfeld
    spin               none
    relativistic       none
    charge             0.
  #
  #  SCF convergence
  #
    occupation_type    gaussian 0.01
    mixer              pulay
      n_max_pulay        10
      charge_mix_param   0.2
    sc_accuracy_rho    1E-5
    sc_accuracy_eev    1E-3
    sc_accuracy_etot   1E-6
    sc_accuracy_forces 1E-4
    sc_iter_limit      100
  #
  #  Relaxation
  #
  #  relax_geometry   bfgs 1.e-3
  #
  ################################################################################
  #
  #  FHI-aims code project
  #  VB, Fritz-Haber Institut, 2009
  #
  #  Suggested "light" defaults for H atom (to be pasted into control.in file)
  #  Be sure to double-check any results obtained with these settings for post-processing,
  #  e.g., with the "tight" defaults and larger basis sets.
  #
  ################################################################################
    species        H
  #     global species definitions
      nucleus             1
      mass                1.00794
  #
      l_hartree           4
  #
      cut_pot             3.5  1.5  1.0
      basis_dep_cutoff    1e-4
  #
      radial_base         24 5.0
      radial_multiplier   1
      angular_grids       specified
        division   0.2421   50
        division   0.3822  110
        division   0.4799  194
        division   0.5341  302
  #      division   0.5626  434
  #      division   0.5922  590
  #      division   0.6542  770
  #      division   0.6868 1202
  #      outer_grid  770
        outer_grid  302
  ################################################################################
  #
  #  Definition of "minimal" basis
  #
  ################################################################################
  #     valence basis states
      valence      1  s   1.
  #     ion occupancy
      ion_occ      1  s   0.5
  ################################################################################
  #
  #  Suggested additional basis functions. For production calculations,
  #  uncomment them one after another (the most important basis functions are
  #  listed first).
  #
  #  Basis constructed for dimers: 0.5 A, 0.7 A, 1.0 A, 1.5 A, 2.5 A
  #
  ################################################################################
  #  "First tier" - improvements: -1014.90 meV to -62.69 meV
       hydro 2 s 2.1
       hydro 2 p 3.5
  #  "Second tier" - improvements: -12.89 meV to -1.83 meV
  #     hydro 1 s 0.85
  #     hydro 2 p 3.7
  #     hydro 2 s 1.2
  #     hydro 3 d 7
  #  "Third tier" - improvements: -0.25 meV to -0.12 meV
  #     hydro 4 f 11.2
  #     hydro 3 p 4.8
  #     hydro 4 d 9
  #     hydro 3 s 3.2
  ################################################################################
  #
  #  FHI-aims code project
  #  VB, Fritz-Haber Institut, 2009
  #
  #  Suggested "light" defaults for C atom (to be pasted into control.in file)
  #  Be sure to double-check any results obtained with these settings for post-processing,
  #  e.g., with the "tight" defaults and larger basis sets.
  #
  ################################################################################
    species        C
  #     global species definitions
      nucleus             6
      mass                12.0107
  #
      l_hartree           4
  #
      cut_pot             3.5  1.5  1.0
      basis_dep_cutoff    1e-4
  #
      radial_base         34 5.0
      radial_multiplier   1
      angular_grids specified
        division   0.3326   50
        division   0.5710  110
        division   0.7727  194
        division   0.8772  302
  #      division   0.9334  434
  #      division   0.9625  590
  #      division   0.9924  770
  #      division   1.0230  974
  #      division   1.4589 1202
  #     outer_grid  974
       outer_grid 302
  ################################################################################
  #
  #  Definition of "minimal" basis
  #
  ################################################################################
  #     valence basis states
      valence      2  s   2.
      valence      2  p   2.
  #     ion occupancy
      ion_occ      2  s   1.
      ion_occ      2  p   1.
  ################################################################################
  #
  #  Suggested additional basis functions. For production calculations,
  #  uncomment them one after another (the most important basis functions are
  #  listed first).
  #
  #  Constructed for dimers: 1.0 A, 1.25 A, 1.5 A, 2.0 A, 3.0 A
  #
  ################################################################################
  #  "First tier" - improvements: -1214.57 meV to -155.61 meV
       hydro 2 p 1.7
       hydro 3 d 6
       hydro 2 s 4.9
  #  "Second tier" - improvements: -67.75 meV to -5.23 meV
  #     hydro 4 f 9.8
  #     hydro 3 p 5.2
  #     hydro 3 s 4.3
  #     hydro 5 g 14.4
  #     hydro 3 d 6.2
  #  "Third tier" - improvements: -2.43 meV to -0.60 meV
  #     hydro 2 p 5.6
  #     hydro 2 s 1.4
  #     hydro 3 d 4.9
  #     hydro 4 f 11.2
  #  "Fourth tier" - improvements: -0.39 meV to -0.18 meV
  #     hydro 2 p 2.1
  #     hydro 5 g 16.4
  #     hydro 4 d 13.2
  #     hydro 3 s 13.6
  #     hydro 4 f 17.6
  #  Further basis functions - improvements: -0.08 meV and below
  #     hydro 3 s 2
  #     hydro 3 p 6
  #     hydro 4 d 20
  ################################################################################
  #
  #  FHI-aims code project
  #  VB, Fritz-Haber Institut, 2009
  #
  #  Suggested "light" defaults for N atom (to be pasted into control.in file)
  #  Be sure to double-check any results obtained with these settings for post-processing,
  #  e.g., with the "tight" defaults and larger basis sets.
  #
  ################################################################################
    species        N
  #     global species definitions
      nucleus             7
      mass                14.0067
  #
      l_hartree           4
  #
      cut_pot             3.5  1.5  1.0
      basis_dep_cutoff    1e-4
  #
      radial_base         35 5.0
      radial_multiplier   1
      angular_grids       specified
        division   0.2599   50
        division   0.4601  110
        division   0.5885  194
        division   0.6503  302
  #      division   0.6939  434
  #      division   0.7396  590
  #      division   0.7632  770
  #      division   0.8122  974
  #      division   1.1604 1202
  #      outer_grid  974
        outer_grid  302
  ################################################################################
  #
  #  Definition of "minimal" basis
  #
  ################################################################################
  #     valence basis states
      valence      2  s   2.
      valence      2  p   3.
  #     ion occupancy
      ion_occ      2  s   1.
      ion_occ      2  p   2.
  ################################################################################
  #
  #  Suggested additional basis functions. For production calculations,
  #  uncomment them one after another (the most important basis functions are
  #  listed first).
  #
  #  Constructed for dimers: 1.0 A, 1.1 A, 1.5 A, 2.0 A, 3.0 A
  #
  ################################################################################
  #  "First tier" - improvements: -1193.42 meV to -220.60 meV
       hydro 2 p 1.8
       hydro 3 d 6.8
       hydro 3 s 5.8
  #  "Second tier" - improvements: -80.21 meV to -6.86 meV
  #     hydro 4 f 10.8
  #     hydro 3 p 5.8
  #     hydro 1 s 0.8
  #     hydro 5 g 16
  #     hydro 3 d 4.9
  #  "Third tier" - improvements: -4.29 meV to -0.53 meV
  #     hydro 3 s 16
  #     ionic 2 p auto
  #     hydro 3 d 6.6
  #     hydro 4 f 11.6
  #  "Fourth tier" - improvements: -0.75 meV to -0.25 meV
  #     hydro 2 p 4.5
  #     hydro 2 s 2.4
  #     hydro 5 g 14.4
  #     hydro 4 d 14.4
  #     hydro 4 f 16.8
  # Further basis functions - -0.21 meV and below
  #     hydro 3 p 14.8
  #     hydro 3 s 4.4
  #     hydro 3 d 19.6
  #     hydro 5 g 12.8
  ################################################################################
  #
  #  FHI-aims code project
  #  VB, Fritz-Haber Institut, 2009
  #
  #  Suggested "light" defaults for O atom (to be pasted into control.in file)
  #  Be sure to double-check any results obtained with these settings for post-processing,
  #  e.g., with the "tight" defaults and larger basis sets.
  #
  ################################################################################
    species        O
  #     global species definitions
      nucleus             8
      mass                15.9994
  #
      l_hartree           4
  #
      cut_pot             3.5  1.5  1.0
      basis_dep_cutoff    1e-4
  #
      radial_base         36 5.0
      radial_multiplier   1
       angular_grids specified
        division   0.2659   50
        division   0.4451  110
        division   0.6052  194
        division   0.7543  302
  #      division   0.8014  434
  #      division   0.8507  590
  #      division   0.8762  770
  #      division   0.9023  974
  #      division   1.2339 1202
  #      outer_grid 974
        outer_grid 302
  ################################################################################
  #
  #  Definition of "minimal" basis
  #
  ################################################################################
  #     valence basis states
      valence      2  s   2.
      valence      2  p   4.
  #     ion occupancy
      ion_occ      2  s   1.
      ion_occ      2  p   3.
  ################################################################################
  #
  #  Suggested additional basis functions. For production calculations,
  #  uncomment them one after another (the most important basis functions are
  #  listed first).
  #
  #  Constructed for dimers: 1.0 A, 1.208 A, 1.5 A, 2.0 A, 3.0 A
  #
  ################################################################################
  #  "First tier" - improvements: -699.05 meV to -159.38 meV
       hydro 2 p 1.8
       hydro 3 d 7.6
       hydro 3 s 6.4
  #  "Second tier" - improvements: -49.91 meV to -5.39 meV
  #     hydro 4 f 11.6
  #     hydro 3 p 6.2
  #     hydro 3 d 5.6
  #     hydro 5 g 17.6
  #     hydro 1 s 0.75
  #  "Third tier" - improvements: -2.83 meV to -0.50 meV
  #     ionic 2 p auto
  #     hydro 4 f 10.8
  #     hydro 4 d 4.7
  #     hydro 2 s 6.8
  #  "Fourth tier" - improvements: -0.40 meV to -0.12 meV
  #     hydro 3 p 5
  #     hydro 3 s 3.3
  #     hydro 5 g 15.6
  #     hydro 4 f 17.6
  #     hydro 4 d 14
  # Further basis functions - -0.08 meV and below
  #     hydro 3 s 2.1
  #     hydro 4 d 11.6
  #     hydro 3 p 16
  #     hydro 2 s 17.2
  
  -----------------------------------------------------------------------
  Completed first pass over input file control.in .
  -----------------------------------------------------------------------
  
  
  -----------------------------------------------------------------------
  Parsing geometry.in (first pass over file, find array dimensions only).
  The contents of geometry.in will be repeated verbatim below
  unless switched off by setting 'verbatim_writeout .false.' .
  in the first line of geometry.in .
  -----------------------------------------------------------------------
  
  atom  0.00000 0.00000 0.00000 C
  atom  1.09300 0.00000 0.00000 H
  atom  -0.47961 0.00000 -1.41207 N
  atom  -0.82854 -0.93198 -1.63899 H
  atom  -1.22518 0.68687 -1.50404 H
  atom  -0.49584 1.26211 0.72868 C
  atom  0.00433 1.36621 1.69437 H
  atom  -0.28718 2.15346 0.13243 H
  atom  -1.57317 1.20464 0.90078 H
  atom  -0.39425 -1.28861 0.74398 C
  atom  -0.77121 -2.31465 0.22979 O
  atom  -0.30608 -1.24553 2.03515 O
  atom  -1.25349 -1.30661 2.24413 H
  
  -----------------------------------------------------------------------
  Completed first pass over input file geometry.in .
  -----------------------------------------------------------------------
  

  Basic array size parameters:
  | Number of species                 :        4
  | Number of atoms                   :       13
  | Max. basis fn. angular momentum   :        2
  | Max. atomic/ionic basis occupied n:        2
  | Max. number of basis fn. types    :        2
  | Max. radial fns per species/type  :        3
  | Max. logarithmic grid size        :     1301
  | Max. radial integration grid size :       36
  | Max. angular integration grid size:      302
  | Max. angular grid division number :        8
  | Radial grid for Hartree potential :     1301
  | Number of spin channels           :        1

------------------------------------------------------------
          Reading file control.in.
------------------------------------------------------------
  XC: Using PBE gradient-corrected functionals.
  Spin treatment: No spin polarisation.
  Non-relativistic treatment of kinetic energy.
  Charge =   0.000000E+00: Neutral system requested explicitly.
  Occupation type: Gaussian broadening, width =   0.100000E-01 eV.
  Using pulay charge density mixing.
  Pulay mixing - number of memorized iterations:   10
  Charge density mixing - mixing parameter:     0.2000
  Convergence accuracy of self-consistent charge density:  0.1000E-04
  Convergence accuracy of sum of eigenvalues:  0.1000E-02
  Convergence accuracy of total energy:  0.1000E-05
  Convergence accuracy of forces:  0.1000E-03
  Maximum number of s.-c. iterations  :   100
 
  Reading configuration options for species H                   .
  | Found nuclear charge :   1.0000
  | Found atomic mass :    1.00794000000000      amu
  | Found l_max for Hartree potential  :   4
  | Found cutoff potl. onset [A], width [A], scale factor :    3.50000    1.50000    1.00000
  | Threshold for basis-dependent cutoff potential is   0.100000E-03
  | Found data for basic radial integration grid :    24 points, outermost radius =    5.000 A
  | Found multiplier for basic radial grid :   1
  | Found angular grid specification: user-specified.
  | Specified grid contains     5 separate shells.
  | Check grid settings after all constraints further below.
  | Found free-atom valence shell :  1 s   1.000
  | No ionic wave fns used. Skipping ion_occ.
  | Found hydrogenic basis function :  2 s   2.100
  | Found hydrogenic basis function :  2 p   3.500
  Species H                   : Missing cutoff potential type.
  Defaulting to exp(1/x)/(1-x)^2 type cutoff potential.
  Species H : No 'logarithmic' tag. Using default grid for free atom:
  | Default logarithmic grid data [bohr] : 0.1000E-03 0.1000E+03 0.1012E+01
  Species H : On-site basis accuracy parameter (for Gram-Schmidt orthonormalisation) not specified.
  Using default value basis_acc =  0.1000000E-03.
  Species H                   : Using default innermost maximum threshold i_radial=  2 for radial functions.
  Species H                   : Default cutoff onset for free atom density etc. : 0.35000000E+01 AA.
  Species H                   : Basic radial grid will be enhanced according to radial_multiplier =   1, to contain    24 grid points.
 
  Reading configuration options for species C                   .
  | Found nuclear charge :   6.0000
  | Found atomic mass :    12.0107000000000      amu
  | Found l_max for Hartree potential  :   4
  | Found cutoff potl. onset [A], width [A], scale factor :    3.50000    1.50000    1.00000
  | Threshold for basis-dependent cutoff potential is   0.100000E-03
  | Found data for basic radial integration grid :    34 points, outermost radius =    5.000 A
  | Found multiplier for basic radial grid :   1
  | Found angular grid specification: user-specified.
  | Specified grid contains     5 separate shells.
  | Check grid settings after all constraints further below.
  | Found free-atom valence shell :  2 s   2.000
  | Found free-atom valence shell :  2 p   2.000
  | No ionic wave fns used. Skipping ion_occ.
  | No ionic wave fns used. Skipping ion_occ.
  | Found hydrogenic basis function :  2 p   1.700
  | Found hydrogenic basis function :  3 d   6.000
  | Found hydrogenic basis function :  2 s   4.900
  Species C                   : Missing cutoff potential type.
  Defaulting to exp(1/x)/(1-x)^2 type cutoff potential.
  Species C : No 'logarithmic' tag. Using default grid for free atom:
  | Default logarithmic grid data [bohr] : 0.1000E-03 0.1000E+03 0.1012E+01
  Species C : On-site basis accuracy parameter (for Gram-Schmidt orthonormalisation) not specified.
  Using default value basis_acc =  0.1000000E-03.
  Species C                   : Using default innermost maximum threshold i_radial=  2 for radial functions.
  Species C                   : Default cutoff onset for free atom density etc. : 0.35000000E+01 AA.
  Species C                   : Basic radial grid will be enhanced according to radial_multiplier =   1, to contain    34 grid points.
 
  Reading configuration options for species N                   .
  | Found nuclear charge :   7.0000
  | Found atomic mass :    14.0067000000000      amu
  | Found l_max for Hartree potential  :   4
  | Found cutoff potl. onset [A], width [A], scale factor :    3.50000    1.50000    1.00000
  | Threshold for basis-dependent cutoff potential is   0.100000E-03
  | Found data for basic radial integration grid :    35 points, outermost radius =    5.000 A
  | Found multiplier for basic radial grid :   1
  | Found angular grid specification: user-specified.
  | Specified grid contains     5 separate shells.
  | Check grid settings after all constraints further below.
  | Found free-atom valence shell :  2 s   2.000
  | Found free-atom valence shell :  2 p   3.000
  | No ionic wave fns used. Skipping ion_occ.
  | No ionic wave fns used. Skipping ion_occ.
  | Found hydrogenic basis function :  2 p   1.800
  | Found hydrogenic basis function :  3 d   6.800
  | Found hydrogenic basis function :  3 s   5.800
  Species N                   : Missing cutoff potential type.
  Defaulting to exp(1/x)/(1-x)^2 type cutoff potential.
  Species N : No 'logarithmic' tag. Using default grid for free atom:
  | Default logarithmic grid data [bohr] : 0.1000E-03 0.1000E+03 0.1012E+01
  Species N : On-site basis accuracy parameter (for Gram-Schmidt orthonormalisation) not specified.
  Using default value basis_acc =  0.1000000E-03.
  Species N                   : Using default innermost maximum threshold i_radial=  2 for radial functions.
  Species N                   : Default cutoff onset for free atom density etc. : 0.35000000E+01 AA.
  Species N                   : Basic radial grid will be enhanced according to radial_multiplier =   1, to contain    35 grid points.
 
  Reading configuration options for species O                   .
  | Found nuclear charge :   8.0000
  | Found atomic mass :    15.9994000000000      amu
  | Found l_max for Hartree potential  :   4
  | Found cutoff potl. onset [A], width [A], scale factor :    3.50000    1.50000    1.00000
  | Threshold for basis-dependent cutoff potential is   0.100000E-03
  | Found data for basic radial integration grid :    36 points, outermost radius =    5.000 A
  | Found multiplier for basic radial grid :   1
  | Found angular grid specification: user-specified.
  | Specified grid contains     5 separate shells.
  | Check grid settings after all constraints further below.
  | Found free-atom valence shell :  2 s   2.000
  | Found free-atom valence shell :  2 p   4.000
  | No ionic wave fns used. Skipping ion_occ.
  | No ionic wave fns used. Skipping ion_occ.
  | Found hydrogenic basis function :  2 p   1.800
  | Found hydrogenic basis function :  3 d   7.600
  | Found hydrogenic basis function :  3 s   6.400
  Species O                   : Missing cutoff potential type.
  Defaulting to exp(1/x)/(1-x)^2 type cutoff potential.
  Species O : No 'logarithmic' tag. Using default grid for free atom:
  | Default logarithmic grid data [bohr] : 0.1000E-03 0.1000E+03 0.1012E+01
  Species O : On-site basis accuracy parameter (for Gram-Schmidt orthonormalisation) not specified.
  Using default value basis_acc =  0.1000000E-03.
  Species O                   : Using default innermost maximum threshold i_radial=  2 for radial functions.
  Species O                   : Default cutoff onset for free atom density etc. : 0.35000000E+01 AA.
  Species O                   : Basic radial grid will be enhanced according to radial_multiplier =   1, to contain    36 grid points.
 
  Finished reading input file 'control.in'. Consistency checks are next.
 
  MPI_IN_PLACE appears to work with this MPI implementation.
  | Keeping use_mpi_in_place .true. (see manual).
  Target number of points in a grid batch is not set. Defaulting to  100
  Method for grid partitioning is not set. Defaulting to parallel hash+maxmin partitioning.
  Batch size limit is not set. Defaulting to    200
  By default, will store active basis functions for each batch.
  If in need of memory, prune_basis_once .false. can be used to disable this option.
  communication_type for Hartree potential was not specified.
  Defaulting to calc_hartree .
  Pulay mixer: Number of initial linear mixing iterations not set.
  Defaulting to    0 iterations.
  Work space size for distributed Hartree potential not set.
  Defaulting to   0.200000E+03 MB.
  Algorithm-dependent basis array size parameters:
  | n_max_pulay                         :       10
  Presetting      1001 iterations before the initial mixing cycle
  is restarted anyway using the sc_init_iter criterion / keyword.
  Presetting a factor      1.000 between actual scf density residual
  and density convergence criterion sc_accuracy_rho below which sc_init_iter
  takes no effect.
  Geometry relaxation not requested: no relaxation will be performed.
  Handling of forces: Unphysical translation and rotation will be removed from forces.
  No accuracy limit for integral partition fn. given. Defaulting to  0.1000E-14.
  No threshold value for u(r) in integrations given. Defaulting to  0.1000E-05.
  No accuracy for occupation numbers given. Defaulting to  0.1000E-12.
  No threshold value for occupation numbers given. Defaulting to  0.0000E+00.
  No accuracy for fermi level given. Defaulting to  0.1000E-19.
  Maximum # of iterations to find E_F not set. Defaulting to  200.
  Preferred method for the eigenvalue solver ('KS_method') not specified in 'control.in'.
  Calling BLACS routine to test compilation state
  Since ScaLAPACK support is enabled, defaulting to 'elsi'.
  Will not use alltoall communication since running on < 1024 CPUs.
  Threshold for basis singularities not set.
  Default threshold for basis singularities:  0.1000E-04
  partition_type (choice of integration weights) for integrals was not specified.
  | Using a version of the partition function of Stratmann and coworkers ('stratmann_smoother').
  | At each grid point, the set of atoms used to build the partition table is smoothly restricted to
  | only those atoms whose free-atom density would be non-zero at that grid point.
  Partitioning for Hartree potential was not defined. Using partition_type for integrals.
  | Adjusted default value of keyword multip_moments_threshold to:       0.10000000E-11
  | This value may affect high angular momentum components of the Hartree potential in periodic systems.
  No q(lm)/r^(l+1) cutoff set for long-range Hartree potential.
  | Using default value of  0.100000E-09 .
  | Verify using the multipole_threshold keyword.
  Defaulting to new monopole extrapolation.
  Density update method: automatic selection selected.
------------------------------------------------------------


------------------------------------------------------------
          Reading geometry description geometry.in.
------------------------------------------------------------
  Input structure read successfully.
  The structure contains       13 atoms,  and a total of         48.000 electrons.

  Input geometry:
  | No unit cell requested.
  | Atomic structure:
  |       Atom                x [A]            y [A]            z [A]
  |    1: Species C             0.00000000        0.00000000        0.00000000
  |    2: Species H             1.09300000        0.00000000        0.00000000
  |    3: Species N            -0.47961000        0.00000000       -1.41207000
  |    4: Species H            -0.82854000       -0.93198000       -1.63899000
  |    5: Species H            -1.22518000        0.68687000       -1.50404000
  |    6: Species C            -0.49584000        1.26211000        0.72868000
  |    7: Species H             0.00433000        1.36621000        1.69437000
  |    8: Species H            -0.28718000        2.15346000        0.13243000
  |    9: Species H            -1.57317000        1.20464000        0.90078000
  |   10: Species C            -0.39425000       -1.28861000        0.74398000
  |   11: Species O            -0.77121000       -2.31465000        0.22979000
  |   12: Species O            -0.30608000       -1.24553000        2.03515000
  |   13: Species H            -1.25349000       -1.30661000        2.24413000
  |

  | The smallest distance between any two atoms is         0.97210551 AA.
  |
  | The first atom of this pair is atom number                     12 .
  | The second atom of this pair is atom number                    13 .

  Number of empty states per atom not set in control.in - providing a guess from actual geometry.
  | Total number of empty states used during s.c.f. cycle:       29
  If you use a very high smearing, use empty_states (per atom!) in control.in to increase this value.

  Structure-dependent array size parameters: 
  | Maximum number of distinct radial functions  :       21
  | Maximum number of basis functions            :      119
  | Number of Kohn-Sham states (occupied + empty):       53
------------------------------------------------------------

------------------------------------------------------------
          Preparing all fixed parts of the calculation.
------------------------------------------------------------
  Determining machine precision:
    2.225073858507201E-308
  Setting up grids for atomic and cluster calculations.

  Creating wave function, potential, and density for free atoms.

  Species: H

  List of occupied orbitals and eigenvalues:
    n    l              occ      energy [Ha]    energy [eV]
    1    0           1.0000        -0.237589        -6.4651


  Species: C

  List of occupied orbitals and eigenvalues:
    n    l              occ      energy [Ha]    energy [eV]
    1    0           2.0000       -10.038835      -273.1706
    2    0           2.0000        -0.502696       -13.6791
    2    1           2.0000        -0.191971        -5.2238


  Species: N

  List of occupied orbitals and eigenvalues:
    n    l              occ      energy [Ha]    energy [eV]
    1    0           2.0000       -14.128000      -384.4424
    2    0           2.0000        -0.681077       -18.5330
    2    1           3.0000        -0.259788        -7.0692


  Species: O

  List of occupied orbitals and eigenvalues:
    n    l              occ      energy [Ha]    energy [eV]
    1    0           2.0000       -18.898188      -514.2459
    2    0           2.0000        -0.878505       -23.9053
    2    1           4.0000        -0.331779        -9.0282

  Creating fixed part of basis set: Ionic, confined, hydrogenic.
 
  H                    hydrogenic:
 
  List of hydrogenic basis orbitals: 
    n    l      effective z      eigenvalue [eV]  inner max. [A]     outer max. [A]     outer radius [A]   
    2    0         2.100000       -14.9728           0.193243           1.317208           4.583499
    2    1         3.500000       -41.6669           0.602369           0.602369           3.723403
 
 
  C                    hydrogenic:
 
  List of hydrogenic basis orbitals: 
    n    l      effective z      eigenvalue [eV]  inner max. [A]     outer max. [A]     outer radius [A]   
    2    1         1.700000        -9.7616           1.230570           1.230570           4.607917
    3    2         6.000000       -54.4224           0.792453           0.792453           3.883070
    2    0         4.900000       -81.6679           0.082559           0.562749           3.078220
 
 
  N                    hydrogenic:
 
  List of hydrogenic basis orbitals: 
    n    l      effective z      eigenvalue [eV]  inner max. [A]     outer max. [A]     outer radius [A]   
    2    1         1.800000       -10.9749           1.177451           1.177451           4.573712
    3    2         6.800000       -69.9026           0.704619           0.704619           3.538137
    3    0         5.800000       -50.8545           0.067388           1.191934           4.250239
 
 
  O                    hydrogenic:
 
  List of hydrogenic basis orbitals: 
    n    l      effective z      eigenvalue [eV]  inner max. [A]     outer max. [A]     outer radius [A]   
    2    1         1.800000       -10.9749           1.164242           1.164242           4.578029
    3    2         7.600000       -87.3180           0.624125           0.624125           3.251020
    3    0         6.400000       -61.9207           0.061167           1.081902           4.001998
 

  Adding cutoff potential to free-atom effective potential.
  Creating atomic-like basis functions for current effective potential.

  Species H                   :

  List of atomic basis orbitals and eigenvalues:
    n    l      energy [Ha]    energy [eV]    outer radius [A]
    1    0        -0.237589        -6.4651       4.527807


  Species C                   :

  List of atomic basis orbitals and eigenvalues:
    n    l      energy [Ha]    energy [eV]    outer radius [A]
    1    0       -10.038835      -273.1706       1.934409
    2    0        -0.502696       -13.6791       4.496620
    2    1        -0.191971        -5.2238       4.551928


  Species N                   :

  List of atomic basis orbitals and eigenvalues:
    n    l      energy [Ha]    energy [eV]    outer radius [A]
    1    0       -14.128000      -384.4424       1.637919
    2    0        -0.681077       -18.5330       4.463241
    2    1        -0.259788        -7.0692       4.518138


  Species O                   :

  List of atomic basis orbitals and eigenvalues:
    n    l      energy [Ha]    energy [eV]    outer radius [A]
    1    0       -18.898188      -514.2459       1.415765
    2    0        -0.878505       -23.9053       4.413171
    2    1        -0.331779        -9.0282       4.522403

  Assembling full basis from fixed parts.
  | Species H :   atomic orbital   1 s accepted.
  | Species H :    hydro orbital   2 s accepted.
  | Species H :    hydro orbital   2 p accepted.
  | Species C :   atomic orbital   1 s accepted.
  | Species C :    hydro orbital   2 s accepted.
  | Species C :   atomic orbital   2 s accepted.
  | Species C :   atomic orbital   2 p accepted.
  | Species C :    hydro orbital   2 p accepted.
  | Species C :    hydro orbital   3 d accepted.
  | Species N :   atomic orbital   1 s accepted.
  | Species N :    hydro orbital   3 s accepted.
  | Species N :   atomic orbital   2 s accepted.
  | Species N :   atomic orbital   2 p accepted.
  | Species N :    hydro orbital   2 p accepted.
  | Species N :    hydro orbital   3 d accepted.
  | Species O :   atomic orbital   1 s accepted.
  | Species O :    hydro orbital   3 s accepted.
  | Species O :   atomic orbital   2 s accepted.
  | Species O :   atomic orbital   2 p accepted.
  | Species O :    hydro orbital   2 p accepted.
  | Species O :    hydro orbital   3 d accepted.
 
  Basis size parameters after reduction:
  | Total number of radial functions:       21
  | Total number of basis functions :      119
 
  Per-task memory consumption for arrays in subroutine allocate_ext:
  |           5.250512MB.
  Testing on-site integration grid accuracy.
  |  Species  Function  <phi|h_atom|phi> (log., in eV)  <phi|h_atom|phi> (rad., in eV)
           1        1                 -6.4663192853                 -6.4651273558
           1        2                 13.7111246313                 13.7170609718
           1        3                 25.2673269279                 25.2674696378
           2        4               -273.1705927641               -273.1705631568
           2        5                -10.7109323383                -10.7107120029
           2        6                 17.4381822266                 17.4352413244
           2        7                 -5.2255326521                 -5.2270484734
           2        8                  8.6835629259                  8.6603288385
           2        9                 27.4952418996                 27.4953360207
           3       10               -384.4424306495               -384.4423701208
           3       11                 12.5842251816                 12.5842222903
           3       12                -15.7264628251                -15.7264433455
           3       13                 -7.0696854293                 -7.0701769954
           3       14                  8.8090390882                  8.7901077751
           3       15                 35.9586762123                 35.9588528632
           4       16               -514.2458688638               -514.2457643834
           4       17                 15.1795651126                 15.1795290741
           4       18                -21.5359799773                -21.5360846186
           4       19                 -9.0283069236                 -9.0284644067
           4       20                  8.3027758564                  8.2834874195
           4       21                 45.8339351984                 45.8338762259

  Preparing densities etc. for the partition functions (integrals / Hartree potential).

  Preparations completed.
  max(cpu_time)          :      0.165 s.
  Wall clock time (cpu1) :      0.164 s.
------------------------------------------------------------

------------------------------------------------------------
          Begin self-consistency loop: Initialization.

          Date     :  20200601, Time     :  011336.377
------------------------------------------------------------

  Initializing index lists of integration centers etc. from given atomic structure:
  | Number of centers in hartree potential         :        13
  | Number of centers in hartree multipole         :        13
  | Number of centers in electron density summation:        13
  | Number of centers in basis integrals           :        13
  | Number of centers in integrals                 :        13
  | Number of centers in hamiltonian               :        13
  * Using 20 tasks for Scalapack Eigenvalue solver.
  Detailed listing of tasks and assigned k-points:
  (for non-periodic systems, the "k-point" denotes an internal label only)
   Task     0 k-point     1 on r02c46.bullx
   Task     1 k-point     1 on r02c46.bullx
   Task     2 k-point     1 on r02c46.bullx
   Task     3 k-point     1 on r02c46.bullx
   Task     4 k-point     1 on r02c46.bullx
   Task     5 k-point     1 on r02c46.bullx
   Task     6 k-point     1 on r02c46.bullx
   Task     7 k-point     1 on r02c46.bullx
   Task     8 k-point     1 on r02c46.bullx
   Task     9 k-point     1 on r02c46.bullx
   Task    10 k-point     1 on r02c46.bullx
   Task    11 k-point     1 on r02c46.bullx
   Task    12 k-point     1 on r02c46.bullx
   Task    13 k-point     1 on r02c46.bullx
   Task    14 k-point     1 on r02c46.bullx
   Task    15 k-point     1 on r02c46.bullx
   Task    16 k-point     1 on r02c46.bullx
   Task    17 k-point     1 on r02c46.bullx
   Task    18 k-point     1 on r02c46.bullx
   Task    19 k-point     1 on r02c46.bullx
  Tasks:    20 split into      5 X      4 BLACS grid
  Calculating block size based on n_basis =          119  max_nprow =            5  max_npcol =            4
  ScaLAPACK block size set to:           16
  Allocating        0.008 MB for ovlp
  Allocating        0.008 MB for ham
  Allocating        0.008 MB for eigenvec
  Required Scalapack workspace - INTEGER:            1  REAL:             1
  Partitioning the integration grid into batches with parallel hashing+maxmin method.
  | Number of batches:      845
  | Maximal batch size:     188
  | Minimal batch size:      49
  | Average batch size:      82.421
  | Standard deviation of batch sizes:      18.503

  Integration load balanced across    20 MPI tasks.
  Work distribution over tasks is as follows:
  Task     0 has       3457 integration points.
  Task     1 has       3458 integration points.
  Task     2 has       3519 integration points.
  Task     3 has       3467 integration points.
  Task     4 has       3471 integration points.
  Task     5 has       3448 integration points.
  Task     6 has       3429 integration points.
  Task     7 has       3566 integration points.
  Task     8 has       3537 integration points.
  Task     9 has       3584 integration points.
  Task    10 has       3463 integration points.
  Task    11 has       3444 integration points.
  Task    12 has       3460 integration points.
  Task    13 has       3457 integration points.
  Task    14 has       3452 integration points.
  Task    15 has       3443 integration points.
  Task    16 has       3450 integration points.
  Task    17 has       3525 integration points.
  Task    18 has       3565 integration points.
  Task    19 has       3451 integration points.
  Initializing partition tables, free-atom densities, potentials, etc. across the integration grid (initialize_grid_storage).
  | initialize_grid_storage: Actual outermost partition radius vs. multipole_radius_free
  | (-- VB: in principle, multipole_radius_free should be larger, hence this output)
  | Species        1: Confinement radius =              4.999999999999999 AA, multipole_radius_free =              5.054417573612229 AA.
  | Species        1: outer_partition_radius set to              5.054417573612229 AA .
  | Species        2: Confinement radius =              4.999999999999999 AA, multipole_radius_free =              5.019602836301480 AA.
  | Species        2: outer_partition_radius set to              5.019602836301480 AA .
  | Species        3: Confinement radius =              4.999999999999999 AA, multipole_radius_free =              5.043624274424571 AA.
  | Species        3: outer_partition_radius set to              5.043624274424571 AA .
  | Species        4: Confinement radius =              4.999999999999999 AA, multipole_radius_free =              5.048384829883283 AA.
  | Species        4: outer_partition_radius set to              5.048384829883283 AA .
  | Original list of interatomic distances with          13 x         13 entries is created.
  | Net number of integration points:    69646
  | of which are non-zero points    :    59411
  Renormalizing the initial density to the exact electron count on the 3D integration grid.
  | Initial density: Formal number of electrons (from input files) :      48.0000000000
  | Integrated number of electrons on 3D grid     :      48.0000442349
  | Charge integration error                      :       0.0000442349
  | Normalization factor for density and gradient :       0.9999990784
  Obtaining max. number of non-zero basis functions in each batch (get_n_compute_maxes).
  | Maximal number of non-zero basis functions:      117 in task     0
  | Maximal number of non-zero basis functions:      118 in task     1
  | Maximal number of non-zero basis functions:      118 in task     2
  | Maximal number of non-zero basis functions:      117 in task     3
  | Maximal number of non-zero basis functions:      117 in task     4
  | Maximal number of non-zero basis functions:      118 in task     5
  | Maximal number of non-zero basis functions:      118 in task     6
  | Maximal number of non-zero basis functions:      117 in task     7
  | Maximal number of non-zero basis functions:      118 in task     8
  | Maximal number of non-zero basis functions:      119 in task     9
  | Maximal number of non-zero basis functions:      117 in task    10
  | Maximal number of non-zero basis functions:      119 in task    11
  | Maximal number of non-zero basis functions:      118 in task    12
  | Maximal number of non-zero basis functions:      119 in task    13
  | Maximal number of non-zero basis functions:      118 in task    14
  | Maximal number of non-zero basis functions:      119 in task    15
  | Maximal number of non-zero basis functions:      117 in task    16
  | Maximal number of non-zero basis functions:      119 in task    17
  | Maximal number of non-zero basis functions:      117 in task    18
  | Maximal number of non-zero basis functions:      117 in task    19
  Selecting the method for density update.
  Loop over occupied states selected for charge density update.
  Allocating        0.050 MB for KS_eigenvector
  Integrating Hamiltonian matrix: batch-based integration.
  Time summed over all CPUs for integration: real work        0.524 s, elapsed        0.572 s
  Integrating overlap matrix.
  Time summed over all CPUs for integration: real work        0.215 s, elapsed        0.232 s
  Deallocating overlap matrix.

  Updating Kohn-Sham eigenvalues and eigenvectors using ELSI and the ELPA eigensolver.
  ELPA settings:
  | ELPA solver          1
  | Time full => band           :     0.001 s
  | Time band => tridiagonal    :     0.001 s
  | Time solve tridiagonal      :     0.001 s
  Overlap matrix is nonsingular
  | Lowest eigenvalue of overlap  :  0.44E-02
  | Highest eigenvalue of overlap :  0.62E+01
  Finished singularity check of overlap matrix
  | Time :     0.003 s
  Finished Cholesky decomposition
  | Time :     0.001 s
  Finished transformation to standard eigenproblem
  | Time :     0.001 s
  Starting ELPA eigensolver
  | Time full => tridiagonal    :     0.002 s
  | Time solve tridiagonal      :     0.000 s
  | Time ev tridiagonal => full :     0.000 s
  Finished solving standard eigenproblem
  | Time :     0.003 s
  Finished back-transformation of eigenvectors
  | Time :     0.000 s

  Obtaining occupation numbers and chemical potential using ELSI.
  | Chemical potential (Fermi level):    -9.92043119eV
  Writing Kohn-Sham eigenvalues.

  State    Occupation    Eigenvalue [Ha]    Eigenvalue [eV]
      1       2.00000         -19.007694         -517.22567
      2       2.00000         -18.977846         -516.41347
      3       2.00000         -14.245753         -387.64665
      4       2.00000         -10.166916         -276.65586
      5       2.00000         -10.141269         -275.95797
      6       2.00000         -10.132154         -275.70993
      7       2.00000          -1.185148          -32.24952
      8       2.00000          -1.096212          -29.82946
      9       2.00000          -0.991351          -26.97604
     10       2.00000          -0.860425          -23.41335
     11       2.00000          -0.759318          -20.66210
     12       2.00000          -0.678478          -18.46232
     13       2.00000          -0.628863          -17.11224
     14       2.00000          -0.604399          -16.44653
     15       2.00000          -0.589108          -16.03044
     16       2.00000          -0.567413          -15.44008
     17       2.00000          -0.559546          -15.22601
     18       2.00000          -0.522122          -14.20766
     19       2.00000          -0.516766          -14.06191
     20       2.00000          -0.503153          -13.69148
     21       2.00000          -0.461348          -12.55391
     22       2.00000          -0.438774          -11.93964
     23       2.00000          -0.401524          -10.92603
     24       2.00000          -0.383036          -10.42294
     25       0.00000          -0.160197           -4.35920
     26       0.00000          -0.058058           -1.57984
     27       0.00000          -0.043391           -1.18072
     28       0.00000          -0.015656           -0.42601
     29       0.00000          -0.000028           -0.00075
     30       0.00000           0.005430            0.14776
     31       0.00000           0.016624            0.45236
     32       0.00000           0.028771            0.78289
     33       0.00000           0.040723            1.10813
     34       0.00000           0.067353            1.83277
     35       0.00000           0.097542            2.65426
     36       0.00000           0.142340            3.87328
     37       0.00000           0.160266            4.36106
     38       0.00000           0.204738            5.57120
     39       0.00000           0.215130            5.85399
     40       0.00000           0.232548            6.32794
     41       0.00000           0.260167            7.07949
     42       0.00000           0.270832            7.36971
     43       0.00000           0.278014            7.56513
     44       0.00000           0.310359            8.44530
     45       0.00000           0.330094            8.98231
     46       0.00000           0.343597            9.34974
     47       0.00000           0.378058           10.28747
     48       0.00000           0.390400           10.62333
     49       0.00000           0.447281           12.17115
     50       0.00000           0.481937           13.11418
     51       0.00000           0.523829           14.25410
     52       0.00000           0.526529           14.32758
     53       0.00000           0.552306           15.02901

  Highest occupied state (VBM) at    -10.42294194 eV
  | Occupation number:      2.00000000

  Lowest unoccupied state (CBM) at    -4.35919521 eV
  | Occupation number:      0.00000000

  Overall HOMO-LUMO gap:      6.06374673 eV.
  Calculating total energy contributions from superposition of free atom densities.

  Total energy components:
  | Sum of eigenvalues            :        -188.83722881 Ha       -5138.52244116 eV
  | XC energy correction          :         -41.79031935 Ha       -1137.17244830 eV
  | XC potential correction       :          53.72232916 Ha        1461.85895504 eV
  | Free-atom electrostatic energy:        -146.85270247 Ha       -3996.06535188 eV
  | Hartree energy correction     :           0.00000000 Ha           0.00000000 eV
  | vdW energy correction         :           0.00000000 Ha           0.00000000 eV
  | Entropy correction            :           0.00000000 Ha           0.00000000 eV
  | ---------------------------
  | Total energy                  :        -323.75792148 Ha       -8809.90128630 eV
  | Total energy, T -> 0          :        -323.75792148 Ha       -8809.90128630 eV  <-- do not rely on this value for anything but (periodic) metals
  | Electronic free energy        :        -323.75792148 Ha       -8809.90128630 eV

  Derived energy quantities:
  | Kinetic energy                :         320.50142098 Ha        8721.28739904 eV
  | Electrostatic energy          :        -602.46902310 Ha      -16394.01623704 eV
  | Energy correction for multipole
  | error in Hartree potential    :           0.00000000 Ha           0.00000000 eV
  | Sum of eigenvalues per atom                           :        -395.27095701 eV
  | Total energy (T->0) per atom                          :        -677.68471433 eV  <-- do not rely on this value for anything but (periodic) metals
  | Electronic free energy per atom                       :        -677.68471433 eV
  Initialize hartree_potential_storage
  Max. number of atoms included in rho_multipole:           13

  End scf initialization - timings             :  max(cpu_time)    wall_clock(cpu1)
  | Time for scf. initialization               :        0.094 s           0.094 s
  | Boundary condition initialization          :        0.000 s           0.000 s
  | Integration                                :        0.041 s           0.041 s
  | Solution of K.-S. eqns.                    :        0.009 s           0.009 s
  | Grid partitioning                          :        0.021 s           0.021 s
  | Preloading free-atom quantities on grid    :        0.002 s           0.003 s
  | Free-atom superposition energy             :        0.005 s           0.005 s
  | Total energy evaluation                    :        0.000 s           0.000 s

  Partial memory accounting:
  | Current value for overall tracked memory usage on task 0  :           0.133 MB
  | Peak value for overall tracked memory usage on task 0     :           0.830 MB after allocating wave
  | Largest tracked array allocation on task 0 so far         :           0.176 MB  when allocating H_times_psi
  Note:  These values currently only include a subset of arrays which are explicitly tracked.
  The "true" memory usage will be greater.
------------------------------------------------------------

------------------------------------------------------------
          Begin self-consistency iteration #    1

  Date     :  20200601, Time     :  011336.471
------------------------------------------------------------
  Evaluating new KS density.
  Integration grid: deviation in total charge (<rho> - N_e) =   7.105427E-15
  Pulay mixing of updated and previous charge densities.

  Evaluating partitioned Hartree potential by multipole expansion.
  | Analytical far-field extrapolation by fixed multipoles:
  | Hartree multipole sum: apparent total charge =  -0.656887E-04
  Summing up the Hartree potential.
  Time summed over all CPUs for potential: real work        0.419 s, elapsed        0.429 s
  | RMS charge density error from multipole expansion :   0.594369E-02

  Integrating Hamiltonian matrix: batch-based integration.
  Time summed over all CPUs for integration: real work        0.511 s, elapsed        0.553 s

  Updating Kohn-Sham eigenvalues and eigenvectors using ELSI and the ELPA eigensolver.
  ELPA settings:
  | ELPA solver          1
  Finished transformation to standard eigenproblem
  | Time :     0.000 s
  Starting ELPA eigensolver
  | Time full => tridiagonal    :     0.002 s
  | Time solve tridiagonal      :     0.000 s
  | Time ev tridiagonal => full :     0.000 s
  Finished solving standard eigenproblem
  | Time :     0.003 s
  Finished back-transformation of eigenvectors
  | Time :     0.000 s

  Obtaining occupation numbers and chemical potential using ELSI.
  | Chemical potential (Fermi level):    -4.65877495eV
  Writing Kohn-Sham eigenvalues.

  State    Occupation    Eigenvalue [Ha]    Eigenvalue [eV]
      1       2.00000         -18.899124         -514.27134
      2       2.00000         -18.844181         -512.77627
      3       2.00000         -14.091672         -383.45391
      4       2.00000         -10.119175         -275.35675
      5       2.00000         -10.062194         -273.80622
      6       2.00000         -10.035688         -273.08496
      7       2.00000          -1.136660          -30.93009
      8       2.00000          -1.036135          -28.19466
      9       2.00000          -0.918415          -24.99133
     10       2.00000          -0.796114          -21.66336
     11       2.00000          -0.709345          -19.30226
     12       2.00000          -0.631403          -17.18135
     13       2.00000          -0.573634          -15.60936
     14       2.00000          -0.550163          -14.97069
     15       2.00000          -0.526112          -14.31624
     16       2.00000          -0.509864          -13.87411
     17       2.00000          -0.500110          -13.60868
     18       2.00000          -0.464876          -12.64991
     19       2.00000          -0.451220          -12.27832
     20       2.00000          -0.446898          -12.16072
     21       2.00000          -0.404029          -10.99420
     22       2.00000          -0.379683          -10.33171
     23       2.00000          -0.332130           -9.03773
     24       2.00000          -0.310438           -8.44744
     25       0.00000          -0.127154           -3.46003
     26       0.00000          -0.038529           -1.04844
     27       0.00000          -0.010807           -0.29407
     28       0.00000           0.023302            0.63408
     29       0.00000           0.029485            0.80232
     30       0.00000           0.044153            1.20145
     31       0.00000           0.051096            1.39039
     32       0.00000           0.063060            1.71595
     33       0.00000           0.082929            2.25660
     34       0.00000           0.108491            2.95220
     35       0.00000           0.137650            3.74564
     36       0.00000           0.168274            4.57898
     37       0.00000           0.187008            5.08874
     38       0.00000           0.234441            6.37947
     39       0.00000           0.247541            6.73593
     40       0.00000           0.260278            7.08253
     41       0.00000           0.292078            7.94785
     42       0.00000           0.305399            8.31033
     43       0.00000           0.316119            8.60203
     44       0.00000           0.349766            9.51761
     45       0.00000           0.367560           10.00181
     46       0.00000           0.377877           10.28257
     47       0.00000           0.419132           11.40517
     48       0.00000           0.429670           11.69192
     49       0.00000           0.488177           13.28398
     50       0.00000           0.511086           13.90735
     51       0.00000           0.560432           15.25012
     52       0.00000           0.561544           15.28038
     53       0.00000           0.590091           16.05718

  Highest occupied state (VBM) at     -8.44744442 eV
  | Occupation number:      2.00000000

  Lowest unoccupied state (CBM) at    -3.46002712 eV
  | Occupation number:      0.00000000

  Overall HOMO-LUMO gap:      4.98741731 eV.

  Total energy components:
  | Sum of eigenvalues            :        -185.45852526 Ha       -5046.58323968 eV
  | XC energy correction          :         -42.11912608 Ha       -1146.11973464 eV
  | XC potential correction       :          54.14997358 Ha        1473.49575177 eV
  | Free-atom electrostatic energy:        -146.85270247 Ha       -3996.06535188 eV
  | Hartree energy correction     :          -3.29537342 Ha         -89.67167330 eV
  | vdW energy correction         :           0.00000000 Ha           0.00000000 eV
  | Entropy correction            :           0.00000000 Ha           0.00000000 eV
  | ---------------------------
  | Total energy                  :        -323.57575366 Ha       -8804.94424772 eV
  | Total energy, T -> 0          :        -323.57575366 Ha       -8804.94424772 eV  <-- do not rely on this value for anything but (periodic) metals
  | Electronic free energy        :        -323.57575366 Ha       -8804.94424772 eV

  Derived energy quantities:
  | Kinetic energy                :         322.29417124 Ha        8770.07061584 eV
  | Electrostatic energy          :        -603.75079882 Ha      -16428.89512892 eV
  | Energy correction for multipole
  | error in Hartree potential    :           0.01199264 Ha           0.32633641 eV
  | Sum of eigenvalues per atom                           :        -388.19871074 eV
  | Total energy (T->0) per atom                          :        -677.30340367 eV  <-- do not rely on this value for anything but (periodic) metals
  | Electronic free energy per atom                       :        -677.30340367 eV

  Self-consistency convergence accuracy:
  | Change of charge density      :  0.5876E+00
  | Change of sum of eigenvalues  :  0.9194E+02 eV
  | Change of total energy        :  0.4957E+01 eV

  End self-consistency iteration #     1       :  max(cpu_time)    wall_clock(cpu1)
  | Time for this iteration                    :        0.078 s           0.079 s
  | Charge density update                      :        0.022 s           0.023 s
  | Density mixing                             :        0.000 s           0.000 s
  | Hartree multipole update                   :        0.001 s           0.001 s
  | Hartree multipole summation                :        0.022 s           0.022 s
  | Integration                                :        0.028 s           0.028 s
  | Solution of K.-S. eqns.                    :        0.004 s           0.004 s
  | Total energy evaluation                    :        0.000 s           0.001 s

  Partial memory accounting:
  | Current value for overall tracked memory usage on task 0  :           0.133 MB
  | Peak value for overall tracked memory usage on task 0     :           0.837 MB after allocating gradient_basis_wave
  | Largest tracked array allocation on task 0 so far         :           0.528 MB  when allocating gradient_basis_wave
  Note:  These values currently only include a subset of arrays which are explicitly tracked.
  The "true" memory usage will be greater.
------------------------------------------------------------

------------------------------------------------------------
          Begin self-consistency iteration #    2

  Date     :  20200601, Time     :  011336.558
------------------------------------------------------------
  Evaluating new KS density.
  Integration grid: deviation in total charge (<rho> - N_e) =  -7.105427E-15
  Pulay mixing of updated and previous charge densities.

  Evaluating partitioned Hartree potential by multipole expansion.
  | Analytical far-field extrapolation by fixed multipoles:
  | Hartree multipole sum: apparent total charge =  -0.204875E-03
  Summing up the Hartree potential.
  Time summed over all CPUs for potential: real work        0.419 s, elapsed        0.429 s
  | RMS charge density error from multipole expansion :   0.141052E-01

  Integrating Hamiltonian matrix: batch-based integration.
  Time summed over all CPUs for integration: real work        0.511 s, elapsed        0.552 s

  Updating Kohn-Sham eigenvalues and eigenvectors using ELSI and the ELPA eigensolver.
  ELPA settings:
  | ELPA solver          1
  Finished transformation to standard eigenproblem
  | Time :     0.000 s
  Starting ELPA eigensolver
  | Time full => tridiagonal    :     0.002 s
  | Time solve tridiagonal      :     0.000 s
  | Time ev tridiagonal => full :     0.000 s
  Finished solving standard eigenproblem
  | Time :     0.003 s
  Finished back-transformation of eigenvectors
  | Time :     0.000 s

  Obtaining occupation numbers and chemical potential using ELSI.
  | Chemical potential (Fermi level):    -3.31279917eV
  Highest occupied state (VBM) at     -6.37762183 eV
  | Occupation number:      2.00000000

  Lowest unoccupied state (CBM) at    -2.29937767 eV
  | Occupation number:      0.00000000

  Overall HOMO-LUMO gap:      4.07824417 eV.

  Checking to see if s.c.f. parameters should be adjusted.

  Total energy components:
  | Sum of eigenvalues            :        -181.90014403 Ha       -4949.75475987 eV
  | XC energy correction          :         -42.47914030 Ha       -1155.91621992 eV
  | XC potential correction       :          54.61665797 Ha        1486.19488009 eV
  | Free-atom electrostatic energy:        -146.85270247 Ha       -3996.06535188 eV
  | Hartree energy correction     :          -6.88177291 Ha        -187.26256857 eV
  | vdW energy correction         :           0.00000000 Ha           0.00000000 eV
  | Entropy correction            :           0.00000000 Ha           0.00000000 eV
  | ---------------------------
  | Total energy                  :        -323.49710174 Ha       -8802.80402014 eV
  | Total energy, T -> 0          :        -323.49710174 Ha       -8802.80402014 eV  <-- do not rely on this value for anything but (periodic) metals
  | Electronic free energy        :        -323.49710174 Ha       -8802.80402014 eV

  Derived energy quantities:
  | Kinetic energy                :         323.61306841 Ha        8805.95963381 eV
  | Electrostatic energy          :        -604.63102986 Ha      -16452.84743403 eV
  | Energy correction for multipole
  | error in Hartree potential    :           0.02634927 Ha           0.71700008 eV
  | Sum of eigenvalues per atom                           :        -380.75036614 eV
  | Total energy (T->0) per atom                          :        -677.13877078 eV  <-- do not rely on this value for anything but (periodic) metals
  | Electronic free energy per atom                       :        -677.13877078 eV

  Self-consistency convergence accuracy:
  | Change of charge density      :  0.3677E+00
  | Change of sum of eigenvalues  :  0.9683E+02 eV
  | Change of total energy        :  0.2140E+01 eV

  End self-consistency iteration #     2       :  max(cpu_time)    wall_clock(cpu1)
  | Time for this iteration                    :        0.082 s           0.077 s
  | Charge density update                      :        0.026 s           0.021 s
  | Density mixing                             :        0.001 s           0.001 s
  | Hartree multipole update                   :        0.001 s           0.001 s
  | Hartree multipole summation                :        0.022 s           0.022 s
  | Integration                                :        0.028 s           0.028 s
  | Solution of K.-S. eqns.                    :        0.004 s           0.004 s
  | Total energy evaluation                    :        0.000 s           0.000 s

  Partial memory accounting:
  | Current value for overall tracked memory usage on task 0  :           0.134 MB
  | Peak value for overall tracked memory usage on task 0     :           0.837 MB after allocating gradient_basis_wave
  | Largest tracked array allocation on task 0 so far         :           0.528 MB  when allocating gradient_basis_wave
  Note:  These values currently only include a subset of arrays which are explicitly tracked.
  The "true" memory usage will be greater.
------------------------------------------------------------

------------------------------------------------------------
          Begin self-consistency iteration #    3

  Date     :  20200601, Time     :  011336.642
------------------------------------------------------------
  Evaluating new KS density.
  Integration grid: deviation in total charge (<rho> - N_e) =   2.842171E-14
  Pulay mixing of updated and previous charge densities.

  Evaluating partitioned Hartree potential by multipole expansion.
  | Analytical far-field extrapolation by fixed multipoles:
  | Hartree multipole sum: apparent total charge =  -0.299269E-03
  Summing up the Hartree potential.
  Time summed over all CPUs for potential: real work        0.419 s, elapsed        0.431 s
  | RMS charge density error from multipole expansion :   0.221025E-01

  Integrating Hamiltonian matrix: batch-based integration.
  Time summed over all CPUs for integration: real work        0.512 s, elapsed        0.551 s

  Updating Kohn-Sham eigenvalues and eigenvectors using ELSI and the ELPA eigensolver.
  ELPA settings:
  | ELPA solver          1
  Finished transformation to standard eigenproblem
  | Time :     0.000 s
  Starting ELPA eigensolver
  | Time full => tridiagonal    :     0.002 s
  | Time solve tridiagonal      :     0.000 s
  | Time ev tridiagonal => full :     0.000 s
  Finished solving standard eigenproblem
  | Time :     0.002 s
  Finished back-transformation of eigenvectors
  | Time :     0.000 s

  Obtaining occupation numbers and chemical potential using ELSI.
  | Chemical potential (Fermi level):    -2.60864854eV
  Highest occupied state (VBM) at     -5.68265208 eV
  | Occupation number:      2.00000000

  Lowest unoccupied state (CBM) at    -1.63117197 eV
  | Occupation number:      0.00000000

  Overall HOMO-LUMO gap:      4.05148011 eV.

  Total energy components:
  | Sum of eigenvalues            :        -180.61451772 Ha       -4914.77108789 eV
  | XC energy correction          :         -42.62890456 Ha       -1159.99151288 eV
  | XC potential correction       :          54.80765629 Ha        1491.39220876 eV
  | Free-atom electrostatic energy:        -146.85270247 Ha       -3996.06535188 eV
  | Hartree energy correction     :          -8.19593844 Ha        -223.02283225 eV
  | vdW energy correction         :           0.00000000 Ha           0.00000000 eV
  | Entropy correction            :           0.00000000 Ha           0.00000000 eV
  | ---------------------------
  | Total energy                  :        -323.48440691 Ha       -8802.45857614 eV
  | Total energy, T -> 0          :        -323.48440691 Ha       -8802.45857614 eV  <-- do not rely on this value for anything but (periodic) metals
  | Electronic free energy        :        -323.48440691 Ha       -8802.45857614 eV

  Derived energy quantities:
  | Kinetic energy                :         323.20111339 Ha        8794.74976727 eV
  | Electrostatic energy          :        -604.05661574 Ha      -16437.21683054 eV
  | Energy correction for multipole
  | error in Hartree potential    :           0.03695480 Ha           1.00559129 eV
  | Sum of eigenvalues per atom                           :        -378.05931445 eV
  | Total energy (T->0) per atom                          :        -677.11219816 eV  <-- do not rely on this value for anything but (periodic) metals
  | Electronic free energy per atom                       :        -677.11219816 eV

  Self-consistency convergence accuracy:
  | Change of charge density      :  0.2053E+00
  | Change of sum of eigenvalues  :  0.3498E+02 eV
  | Change of total energy        :  0.3454E+00 eV

  End self-consistency iteration #     3       :  max(cpu_time)    wall_clock(cpu1)
  | Time for this iteration                    :        0.080 s           0.077 s
  | Charge density update                      :        0.024 s           0.021 s
  | Density mixing                             :        0.001 s           0.001 s
  | Hartree multipole update                   :        0.001 s           0.001 s
  | Hartree multipole summation                :        0.022 s           0.022 s
  | Integration                                :        0.028 s           0.028 s
  | Solution of K.-S. eqns.                    :        0.004 s           0.003 s
  | Total energy evaluation                    :        0.000 s           0.001 s

  Partial memory accounting:
  | Current value for overall tracked memory usage on task 0  :           0.134 MB
  | Peak value for overall tracked memory usage on task 0     :           0.838 MB after allocating gradient_basis_wave
  | Largest tracked array allocation on task 0 so far         :           0.528 MB  when allocating gradient_basis_wave
  Note:  These values currently only include a subset of arrays which are explicitly tracked.
  The "true" memory usage will be greater.
------------------------------------------------------------

------------------------------------------------------------
          Begin self-consistency iteration #    4

  Date     :  20200601, Time     :  011336.722
------------------------------------------------------------
  Evaluating new KS density.
  Integration grid: deviation in total charge (<rho> - N_e) =   7.105427E-15
  Pulay mixing of updated and previous charge densities.

  Evaluating partitioned Hartree potential by multipole expansion.
  | Analytical far-field extrapolation by fixed multipoles:
  | Hartree multipole sum: apparent total charge =  -0.330453E-03
  Summing up the Hartree potential.
  Time summed over all CPUs for potential: real work        0.411 s, elapsed        0.423 s
  | RMS charge density error from multipole expansion :   0.255275E-01

  Integrating Hamiltonian matrix: batch-based integration.
  Time summed over all CPUs for integration: real work        0.511 s, elapsed        0.553 s

  Updating Kohn-Sham eigenvalues and eigenvectors using ELSI and the ELPA eigensolver.
  ELPA settings:
  | ELPA solver          1
  Finished transformation to standard eigenproblem
  | Time :     0.000 s
  Starting ELPA eigensolver
  | Time full => tridiagonal    :     0.002 s
  | Time solve tridiagonal      :     0.000 s
  | Time ev tridiagonal => full :     0.000 s
  Finished solving standard eigenproblem
  | Time :     0.003 s
  Finished back-transformation of eigenvectors
  | Time :     0.000 s

  Obtaining occupation numbers and chemical potential using ELSI.
  | Chemical potential (Fermi level):    -2.50784077eV
  Highest occupied state (VBM) at     -5.52307965 eV
  | Occupation number:      2.00000000

  Lowest unoccupied state (CBM) at    -1.53769189 eV
  | Occupation number:      0.00000000

  Overall HOMO-LUMO gap:      3.98538776 eV.

  Total energy components:
  | Sum of eigenvalues            :        -180.47544564 Ha       -4910.98674409 eV
  | XC energy correction          :         -42.66568507 Ha       -1160.99236138 eV
  | XC potential correction       :          54.85389041 Ha        1492.65030326 eV
  | Free-atom electrostatic energy:        -146.85270247 Ha       -3996.06535188 eV
  | Hartree energy correction     :          -8.34352195 Ha        -227.03878374 eV
  | vdW energy correction         :           0.00000000 Ha           0.00000000 eV
  | Entropy correction            :           0.00000000 Ha           0.00000000 eV
  | ---------------------------
  | Total energy                  :        -323.48346472 Ha       -8802.43293782 eV
  | Total energy, T -> 0          :        -323.48346472 Ha       -8802.43293782 eV  <-- do not rely on this value for anything but (periodic) metals
  | Electronic free energy        :        -323.48346472 Ha       -8802.43293782 eV

  Derived energy quantities:
  | Kinetic energy                :         322.81175904 Ha        8784.15489637 eV
  | Electrostatic energy          :        -603.62953869 Ha      -16425.59547281 eV
  | Energy correction for multipole
  | error in Hartree potential    :           0.04098449 Ha           1.11524463 eV
  | Sum of eigenvalues per atom                           :        -377.76821108 eV
  | Total energy (T->0) per atom                          :        -677.11022599 eV  <-- do not rely on this value for anything but (periodic) metals
  | Electronic free energy per atom                       :        -677.11022599 eV

  Self-consistency convergence accuracy:
  | Change of charge density      :  0.6621E-01
  | Change of sum of eigenvalues  :  0.3784E+01 eV
  | Change of total energy        :  0.2564E-01 eV

  End self-consistency iteration #     4       :  max(cpu_time)    wall_clock(cpu1)
  | Time for this iteration                    :        0.081 s           0.080 s
  | Charge density update                      :        0.026 s           0.025 s
  | Density mixing                             :        0.001 s           0.001 s
  | Hartree multipole update                   :        0.001 s           0.001 s
  | Hartree multipole summation                :        0.022 s           0.021 s
  | Integration                                :        0.028 s           0.029 s
  | Solution of K.-S. eqns.                    :        0.004 s           0.003 s
  | Total energy evaluation                    :        0.000 s           0.000 s

  Partial memory accounting:
  | Current value for overall tracked memory usage on task 0  :           0.134 MB
  | Peak value for overall tracked memory usage on task 0     :           0.838 MB after allocating gradient_basis_wave
  | Largest tracked array allocation on task 0 so far         :           0.528 MB  when allocating gradient_basis_wave
  Note:  These values currently only include a subset of arrays which are explicitly tracked.
  The "true" memory usage will be greater.
------------------------------------------------------------

------------------------------------------------------------
          Begin self-consistency iteration #    5

  Date     :  20200601, Time     :  011336.809
------------------------------------------------------------
  Evaluating new KS density.
  Integration grid: deviation in total charge (<rho> - N_e) =   7.105427E-15
  Pulay mixing of updated and previous charge densities.

  Evaluating partitioned Hartree potential by multipole expansion.
  | Analytical far-field extrapolation by fixed multipoles:
  | Hartree multipole sum: apparent total charge =  -0.323912E-03
  Summing up the Hartree potential.
  Time summed over all CPUs for potential: real work        0.411 s, elapsed        0.423 s
  | RMS charge density error from multipole expansion :   0.253362E-01

  Integrating Hamiltonian matrix: batch-based integration.
  Time summed over all CPUs for integration: real work        0.511 s, elapsed        0.549 s

  Updating Kohn-Sham eigenvalues and eigenvectors using ELSI and the ELPA eigensolver.
  ELPA settings:
  | ELPA solver          1
  Finished transformation to standard eigenproblem
  | Time :     0.000 s
  Starting ELPA eigensolver
  | Time full => tridiagonal    :     0.002 s
  | Time solve tridiagonal      :     0.000 s
  | Time ev tridiagonal => full :     0.000 s
  Finished solving standard eigenproblem
  | Time :     0.003 s
  Finished back-transformation of eigenvectors
  | Time :     0.000 s

  Obtaining occupation numbers and chemical potential using ELSI.
  | Chemical potential (Fermi level):    -2.59415574eV
  Highest occupied state (VBM) at     -5.60899269 eV
  | Occupation number:      2.00000000

  Lowest unoccupied state (CBM) at    -1.64219591 eV
  | Occupation number:      0.00000000

  Overall HOMO-LUMO gap:      3.96679678 eV.

  Total energy components:
  | Sum of eigenvalues            :        -180.70141300 Ha       -4917.13562874 eV
  | XC energy correction          :         -42.63909331 Ha       -1160.26876274 eV
  | XC potential correction       :          54.81938162 Ha        1491.71127127 eV
  | Free-atom electrostatic energy:        -146.85270247 Ha       -3996.06535188 eV
  | Hartree energy correction     :          -8.10935922 Ha        -220.66689170 eV
  | vdW energy correction         :           0.00000000 Ha           0.00000000 eV
  | Entropy correction            :           0.00000000 Ha           0.00000000 eV
  | ---------------------------
  | Total energy                  :        -323.48318638 Ha       -8802.42536378 eV
  | Total energy, T -> 0          :        -323.48318638 Ha       -8802.42536378 eV  <-- do not rely on this value for anything but (periodic) metals
  | Electronic free energy        :        -323.48318638 Ha       -8802.42536378 eV

  Derived energy quantities:
  | Kinetic energy                :         322.67412012 Ha        8780.40955092 eV
  | Electrostatic energy          :        -603.51821319 Ha      -16422.56615196 eV
  | Energy correction for multipole
  | error in Hartree potential    :           0.04036674 Ha           1.09843484 eV
  | Sum of eigenvalues per atom                           :        -378.24120221 eV
  | Total energy (T->0) per atom                          :        -677.10964337 eV  <-- do not rely on this value for anything but (periodic) metals
  | Electronic free energy per atom                       :        -677.10964337 eV

  Self-consistency convergence accuracy:
  | Change of charge density      :  0.1980E-01
  | Change of sum of eigenvalues  : -0.6149E+01 eV
  | Change of total energy        :  0.7574E-02 eV

  End self-consistency iteration #     5       :  max(cpu_time)    wall_clock(cpu1)
  | Time for this iteration                    :        0.084 s           0.080 s
  | Charge density update                      :        0.029 s           0.025 s
  | Density mixing                             :        0.001 s           0.001 s
  | Hartree multipole update                   :        0.001 s           0.001 s
  | Hartree multipole summation                :        0.022 s           0.022 s
  | Integration                                :        0.028 s           0.028 s
  | Solution of K.-S. eqns.                    :        0.004 s           0.003 s
  | Total energy evaluation                    :        0.000 s           0.000 s

  Partial memory accounting:
  | Current value for overall tracked memory usage on task 0  :           0.134 MB
  | Peak value for overall tracked memory usage on task 0     :           0.838 MB after allocating gradient_basis_wave
  | Largest tracked array allocation on task 0 so far         :           0.528 MB  when allocating gradient_basis_wave
  Note:  These values currently only include a subset of arrays which are explicitly tracked.
  The "true" memory usage will be greater.
------------------------------------------------------------

------------------------------------------------------------
          Begin self-consistency iteration #    6

  Date     :  20200601, Time     :  011336.896
------------------------------------------------------------
  Evaluating new KS density.
  Integration grid: deviation in total charge (<rho> - N_e) =   7.105427E-15
  Pulay mixing of updated and previous charge densities.

[...]
  |   Hirshfeld dipole moment :      0.05582721
  |   Hirshfeld second moments:      0.03422714      -0.01852049      -0.00663664
  |                                 -0.01852049      -0.01805873       0.00692476
  |                                 -0.00663664       0.00692476      -0.01425911
  ----------------------------------------------------------------------
  | Atom    12: O
  |   Hirshfeld charge        :     -0.16178144
  |   Free atom volume        :     23.61338643
  |   Hirshfeld volume        :     20.79742093
  |   Hirshfeld dipole vector :     -0.02379751       0.00265325      -0.03543680
  |   Hirshfeld dipole moment :      0.04276831
  |   Hirshfeld second moments:      0.08903905      -0.00196547      -0.03755973
  |                                 -0.00196547       0.02837571      -0.00550232
  |                                 -0.03755973      -0.00550232       0.06028157
  ----------------------------------------------------------------------
  | Atom    13: H
  |   Hirshfeld charge        :      0.18764623
  |   Free atom volume        :      9.95071624
  |   Hirshfeld volume        :      6.09034946
  |   Hirshfeld dipole vector :     -0.12219867       0.00292865       0.04162832
  |   Hirshfeld dipole moment :      0.12912788
  |   Hirshfeld second moments:      0.12067011      -0.00122147      -0.00617321
  |                                 -0.00122147       0.10898817      -0.00641763
  |                                 -0.00617321      -0.00641763       0.12190798
  ----------------------------------------------------------------------


  Total energy components:
  | Sum of eigenvalues            :        -180.66963556 Ha       -4916.27092061 eV
  | XC energy correction          :         -42.63906221 Ha       -1160.26791652 eV
  | XC potential correction       :          54.81941248 Ha        1491.71211114 eV
  | Free-atom electrostatic energy:        -146.85270247 Ha       -3996.06535188 eV
  | Hartree energy correction     :          -8.14114691 Ha        -221.53187884 eV
  | vdW energy correction         :          -0.00330809 Ha          -0.09001763 eV
  | Entropy correction            :           0.00000000 Ha           0.00000000 eV
  | ---------------------------
  | Total energy                  :        -323.48644275 Ha       -8802.51397434 eV
  | Total energy, T -> 0          :        -323.48644275 Ha       -8802.51397434 eV  <-- do not rely on this value for anything but (periodic) metals
  | Electronic free energy        :        -323.48644275 Ha       -8802.51397434 eV

  Derived energy quantities:
  | Kinetic energy                :         322.57526199 Ha        8777.71948413 eV
  | Electrostatic energy          :        -603.41933445 Ha      -16419.87552432 eV
  | Energy correction for multipole
  | error in Hartree potential    :           0.04085716 Ha           1.11177981 eV
  | Sum of eigenvalues per atom                           :        -378.17468620 eV
  | Total energy (T->0) per atom                          :        -677.11645956 eV  <-- do not rely on this value for anything but (periodic) metals
  | Electronic free energy per atom                       :        -677.11645956 eV

  atomic forces [eV/Ang]:
  -----------------------
  atom #    1
   Hellmann-Feynman              :  0.233499E+00 -0.540364E-01  0.125447E+01
   Ionic forces                  :  0.000000E+00  0.000000E+00  0.000000E+00
   Multipole                     : -0.655913E-01  0.306312E+00 -0.276842E+00
   Pulay + GGA                   : -0.932017E+00 -0.179823E+00 -0.167235E+01
   Van der Waals                 :  0.504552E-02  0.385740E-02 -0.742337E-02
   ----------------------------------------------------------------
   Total forces(   1)            : -0.759064E+00  0.763104E-01 -0.702142E+00
  atom #    2
   Hellmann-Feynman              :  0.478649E+00 -0.605838E-02  0.121285E+00
   Ionic forces                  :  0.000000E+00  0.000000E+00  0.000000E+00
   Multipole                     :  0.162371E+00  0.310142E-01 -0.385300E-01
   Pulay + GGA                   : -0.148166E+00  0.364028E-01 -0.525424E-01
   Van der Waals                 :  0.856114E-02 -0.513976E-03 -0.470582E-02
   ----------------------------------------------------------------
   Total forces(   2)            :  0.501415E+00  0.608446E-01  0.255071E-01
  atom #    3
   Hellmann-Feynman              :  0.909698E+01  0.228618E+01 -0.597540E+01
   Ionic forces                  :  0.000000E+00  0.000000E+00  0.000000E+00
   Multipole                     : -0.262658E+00  0.194414E+00 -0.109353E+01
   Pulay + GGA                   : -0.817081E+01 -0.252293E+01  0.769665E+01
   Van der Waals                 :  0.279905E-02 -0.220649E-02 -0.769607E-02
   ----------------------------------------------------------------
   Total forces(   3)            :  0.666319E+00 -0.445445E-01  0.620024E+00
  atom #    4
   Hellmann-Feynman              : -0.218508E+00 -0.145626E+00 -0.448654E-01
   Ionic forces                  :  0.000000E+00  0.000000E+00  0.000000E+00
   Multipole                     : -0.671751E-01 -0.649194E-01 -0.718236E-01
   Pulay + GGA                   :  0.149273E+00  0.167316E+00  0.495248E-01
   Van der Waals                 : -0.281540E-02  0.372387E-02  0.117930E-02
   ----------------------------------------------------------------
   Total forces(   4)            : -0.139226E+00 -0.395059E-01 -0.659849E-01
  atom #    5
   Hellmann-Feynman              : -0.351324E+00 -0.566248E-01  0.349671E-01
   Ionic forces                  :  0.000000E+00  0.000000E+00  0.000000E+00
   Multipole                     : -0.796596E-01  0.308979E-01 -0.674831E-01
   Pulay + GGA                   :  0.204497E+00 -0.111041E+00 -0.277646E-01
   Van der Waals                 : -0.388047E-03 -0.602192E-02 -0.693263E-02
   ----------------------------------------------------------------
   Total forces(   5)            : -0.226874E+00 -0.142790E+00 -0.672132E-01
  atom #    6
   Hellmann-Feynman              :  0.242266E+00 -0.655299E+00  0.127382E+00
   Ionic forces                  :  0.000000E+00  0.000000E+00  0.000000E+00
   Multipole                     : -0.102956E+00  0.577583E+00  0.307257E+00
   Pulay + GGA                   :  0.177442E+00 -0.343924E+00 -0.362619E+00
   Van der Waals                 : -0.106548E-02  0.421826E-02 -0.243759E-02
   ----------------------------------------------------------------
   Total forces(   6)            :  0.315687E+00 -0.417421E+00  0.695826E-01
  atom #    7
   Hellmann-Feynman              :  0.624890E-01  0.543686E-01  0.134701E+00
   Ionic forces                  :  0.000000E+00  0.000000E+00  0.000000E+00
   Multipole                     :  0.235765E-01  0.676589E-01  0.113473E+00
   Pulay + GGA                   : -0.570552E-01 -0.425077E-01 -0.100338E+00
   Van der Waals                 : -0.261178E-02  0.102603E-01  0.679682E-03
   ----------------------------------------------------------------
   Total forces(   7)            :  0.263985E-01  0.897800E-01  0.148516E+00
  atom #    8
   Hellmann-Feynman              :  0.978158E-01  0.731302E-01 -0.196934E+00
   Ionic forces                  :  0.000000E+00  0.000000E+00  0.000000E+00
   Multipole                     :  0.211576E-02  0.136040E+00 -0.164905E-01
   Pulay + GGA                   : -0.117012E-01 -0.105048E+00  0.668352E-01
   Van der Waals                 : -0.990597E-03  0.560872E-02  0.746083E-02
   ----------------------------------------------------------------
   Total forces(   8)            :  0.872397E-01  0.109731E+00 -0.139129E+00
  atom #    9
   Hellmann-Feynman              : -0.261956E+00 -0.322857E-01 -0.353611E-02
   Ionic forces                  :  0.000000E+00  0.000000E+00  0.000000E+00
   Multipole                     : -0.115305E+00  0.403575E-01  0.399051E-01
   Pulay + GGA                   :  0.987849E-01  0.319393E-01 -0.163414E-01
   Van der Waals                 : -0.336632E-02  0.355746E-02  0.944976E-02
   ----------------------------------------------------------------
   Total forces(   9)            : -0.281842E+00  0.435685E-01  0.294773E-01
  atom #   10
   Hellmann-Feynman              :  0.403489E-01  0.220818E+01 -0.655209E+01
   Ionic forces                  :  0.000000E+00  0.000000E+00  0.000000E+00
   Multipole                     : -0.119638E+00 -0.250537E+00 -0.803838E-01
   Pulay + GGA                   :  0.460690E+00 -0.196496E+01  0.320386E+01
   Van der Waals                 :  0.271067E-02 -0.141715E-01  0.159775E-02
   ----------------------------------------------------------------
   Total forces(  10)            :  0.384112E+00 -0.214917E-01 -0.342702E+01
  atom #   11
   Hellmann-Feynman              : -0.431110E+01 -0.116148E+02 -0.723628E+01
   Ionic forces                  :  0.000000E+00  0.000000E+00  0.000000E+00
   Multipole                     : -0.477215E+00 -0.107809E+01  0.604133E-01
   Pulay + GGA                   :  0.428101E+01  0.121954E+02  0.569456E+01
   Van der Waals                 : -0.227591E-02  0.999048E-03  0.405639E-02
   ----------------------------------------------------------------
   Total forces(  11)            : -0.509581E+00 -0.496479E+00 -0.147725E+01
  atom #   12
   Hellmann-Feynman              :  0.112521E+02  0.360600E+01  0.112887E+02
   Ionic forces                  :  0.000000E+00  0.000000E+00  0.000000E+00
   Multipole                     :  0.247812E+00 -0.322810E+00  0.148814E+01
   Pulay + GGA                   : -0.114920E+02 -0.198605E+01 -0.897546E+01
   Van der Waals                 : -0.426824E-02 -0.125941E-01  0.228515E-02
   ----------------------------------------------------------------
   Total forces(  12)            :  0.368754E-02  0.128455E+01  0.380369E+01
  atom #   13
   Hellmann-Feynman              : -0.427591E+00 -0.503303E+00  0.122649E+01
   Ionic forces                  :  0.000000E+00  0.000000E+00  0.000000E+00
   Multipole                     : -0.569656E-01  0.669437E-02  0.165466E-01
   Pulay + GGA                   :  0.409999E+00 -0.119657E-01 -0.653557E-01
   Van der Waals                 : -0.133460E-02  0.328302E-02  0.248661E-02
   ----------------------------------------------------------------
   Total forces(  13)            : -0.758920E-01 -0.505291E+00  0.118017E+01

  Timings for VdW correction (Tkatchenko-Scheffler 2009 or later):
  | CPU time:        0.009 s, Wall clock time:        0.007 s.
  Removing unitary transformations (pure translations, rotations) from forces on atoms.
  Atomic forces before filtering:
  | Net force on center of mass :  -0.762132E-02 -0.274138E-02 -0.177405E-02 eV/A
  | Net torque on center of mass:   0.242978E-02 -0.390028E-02 -0.258131E-02 eV
  Atomic forces after filtering:
  | Net force on center of mass :  -0.379113E-15  0.178406E-15 -0.535218E-15 eV/A
  | Net torque on center of mass:  -0.188817E-15  0.000000E+00 -0.106210E-15 eV

  Energy and forces in a compact form:
  | Total energy uncorrected      :         -0.880251397434017E+04 eV
  | Total energy corrected        :         -0.880251397434017E+04 eV  <-- do not rely on this value for anything but (periodic) metals
  | Electronic free energy        :         -0.880251397434017E+04 eV
  Total atomic forces (unitary forces cleaned) [eV/Ang]:
  |   1         -0.758527459204834E+00          0.765468864957445E-01         -0.702080476203556E+00
  |   2          0.501951283080480E+00          0.611757855456490E-01          0.254075795483409E-01
  |   3          0.666647670448325E+00         -0.444283581560326E-01          0.620155158556953E+00
  |   4         -0.138849564109334E+00         -0.394327143479236E-01         -0.657501157839046E-01
  |   5         -0.226617920189217E+00         -0.142743737022429E+00         -0.670105632886265E-01
  |   6          0.316221152996311E+00         -0.417186521200970E+00          0.696460554103618E-01
  |   7          0.270655758963774E-01          0.901114062993551E-01          0.148499939687514E+00
  |   8          0.876092161076357E-01          0.109950116307680E+00         -0.139145555451638E+00
  |   9         -0.281277829736739E+00          0.437190013225736E-01          0.297022230774384E-01
  |  10          0.384869546008621E+00         -0.212479062834583E-01         -0.342682605211328E+01
  |  11         -0.508809985279501E+00         -0.496296083667478E+00         -0.147694715278484E+01
  |  12          0.463091915889586E-02          0.128487020204232E+01          0.380386157291094E+01
  |  13         -0.749126051770224E-01         -0.505038077335033E+00          0.118048738643429E+01

  ------------------------------------ 
  Start decomposition of the XC Energy 
  ------------------------------------ 
  X and C from original XC functional choice 
  Hartree-Fock Energy :          0.000000000 Ha              0.000000000 eV
  X Energy            :        -41.038072896 Ha          -1116.702780721 eV
  C Energy            :         -1.600989314 Ha            -43.565135794 eV
  Total XC Energy     :        -42.639062210 Ha          -1160.267916516 eV
  ------------------------------------ 
  LDA X and C from self-consistent density 
  X Energy LDA        :        -37.257621410 Ha          -1013.831461737 eV
  C Energy LDA        :         -3.138694244 Ha            -85.408215908 eV
  ------------------------------------ 
  End decomposition of the XC Energy 
  ------------------------------------ 

------------------------------------------------------------

------------------------------------------------------------------------------
  Final output of selected total energy values:

  The following output summarizes some interesting total energy values
  at the end of a run (AFTER all relaxation, molecular dynamics, etc.).

  | Total energy of the DFT / Hartree-Fock s.c.f. calculation      :          -8802.513974340 eV
  | Final zero-broadening corrected energy (caution - metals only) :          -8802.513974340 eV
  | For reference only, the value of 1 Hartree used in FHI-aims is :             27.211384500 eV

  Before relying on these values, please be sure to understand exactly which
  total energy value is referred to by a given number. Different objects may
  all carry the same name 'total energy'. Definitions:

  Total energy of the DFT / Hartree-Fock s.c.f. calculation:
  | Note that this energy does not include ANY quantities calculated after the
  | s.c.f. cycle, in particular not ANY RPA, MP2, etc. many-body perturbation terms.

  Final zero-broadening corrected energy:
  | For metallic systems only, a broadening of the occupation numbers at the Fermi
  | level can be extrapolated back to zero broadening by an electron-gas inspired
  | formula. For all systems that are not real metals, this value can be
  | meaningless and should be avoided.

------------------------------------------------------------------------------
  Methods described in the following list of references were used in this FHI-aims run.
  If you publish the results, please make sure to cite these reference if they apply.
  FHI-aims is an academic code, and for our developers (often, Ph.D. students
  and postdocs), scientific credit in the community is essential.
  Thank you for helping us!

  For any use of FHI-aims, please cite:

    Volker Blum, Ralf Gehrke, Felix Hanke, Paula Havu, Ville Havu,
    Xinguo Ren, Karsten Reuter, and Matthias Scheffler
    'Ab initio molecular simulations with numeric atom-centered orbitals'
    Computer Physics Communications 180, 2175-2196 (2009)
    http://dx.doi.org/10.1016/j.cpc.2009.06.022


  The scalable eigensolver library ELPA was used in your run.
  ELPA is essential especially for large systems on hundreds or thousands of CPUs.
  For ELPA, please cite:

    Andreas Marek, Volker Blum, Rainer Johanni, Ville Havu, Bruno Lang,
    Thomas Auckenthaler, Alexander Heinecke, Hans-Joachim Bungartz, and Hermann Lederer,
    'The ELPA Library - Scalable Parallel Eigenvalue Solutions
    for Electronic Structure Theory and Computational Science'
    The Journal of Physics: Condensed Matter 26, 213201 (2014).
    http://dx.doi.org/10.1088/0953-8984/26/21/213201


  The ELSI infrastructure was used in your run to solve the Kohn-Sham electronic structure.
  Please check out http://elsi-interchange.org to learn more.
  If scalability is important for your project, please acknowledge ELSI by citing:

    V. W-z. Yu, F. Corsetti, A. Garcia, W. P. Huhn, M. Jacquelin, W. Jia,
    B. Lange, L. Lin, J. Lu, W. Mi, A. Seifitokaldani, A. Vazquez-Mayagoitia,
    C. Yang, H. Yang, and V. Blum
    'ELSI: A unified software interface for Kohn-Sham electronic structure solvers'
    Computer Physics Communications 222, 267-285 (2018).
    http://dx.doi.org/10.1016/j.cpc.2017.09.007


  For the real-space grid partitioning and parallelization used in this calculation, please cite:

    Ville Havu, Volker Blum, Paula Havu, and Matthias Scheffler,
    'Efficient O(N) integration for all-electron electronic structure calculation'
    'using numerically tabulated basis functions'
    Journal of Computational Physics 228, 8367-8379 (2009).
    http://dx.doi.org/10.1016/j.jcp.2009.08.008

  Of course, there are many other important community references, e.g., those cited in the
  above references. Our list is limited to references that describe implementations in the
  FHI-aims code. The reason is purely practical (length of this list) - please credit others as well.

------------------------------------------------------------
          Leaving FHI-aims.
          Date     :  20200601, Time     :  011338.002

          Computational steps:
          | Number of self-consistency cycles          :           16
          | Number of SCF (re)initializations          :            1

          Detailed time accounting                     :  max(cpu_time)    wall_clock(cpu1)
          | Total time                                 :        1.761 s           1.827 s
          | Preparation time                           :        0.165 s           0.164 s
          | Boundary condition initalization           :        0.000 s           0.000 s
          | Grid partitioning                          :        0.021 s           0.021 s
          | Preloading free-atom quantities on grid    :        0.002 s           0.003 s
          | Free-atom superposition energy             :        0.005 s           0.005 s
          | Total time for integrations                :        0.489 s           0.491 s
          | Total time for solution of K.-S. equations :        0.066 s           0.062 s
          | Total time for density & force components  :        0.488 s           0.428 s
          | Total time for mixing                      :        0.019 s           0.021 s
          | Total time for Hartree multipole update    :        0.020 s           0.019 s
          | Total time for Hartree multipole sum       :        0.427 s           0.427 s
          | Total time for total energy evaluation     :        0.003 s           0.005 s
          | Total time for vdW correction              :        0.009 s           0.007 s

          Partial memory accounting:
          | Residual value for overall tracked memory usage across tasks :           0.000 MB (should be 0.000 MB)
          | Peak values for overall tracked memory usage (after allocating hessian_basis_wave):
          |   Minimum:        2.057 MB (on task 20)
          |   Maximum:        2.096 MB (on task 10)
          |   Average:        2.078 MB
          | Largest tracked array allocation (hessian_basis_wave):
          |   Minimum:        1.056 MB (on task  1)
          |   Maximum:        1.074 MB (on task 10)
          |   Average:        1.063 MB
          Note:  These values currently only include a subset of arrays which are explicitly tracked.
          The "true" memory usage will be greater.

          Have a nice day.
------------------------------------------------------------
