  MPI-parallelism will be employed.
------------------------------------------------------------
          Invoking FHI-aims ...
          Version 171221_1
          Compiled on 2019/09/09 at 14:39:39 on host puhti-login2.bullx.

          When using FHI-aims, please cite the following reference:

          Volker Blum, Ralf Gehrke, Felix Hanke, Paula Havu,
          Ville Havu, Xinguo Ren, Karsten Reuter, and Matthias Scheffler,
          'Ab Initio Molecular Simulations with Numeric Atom-Centered Orbitals',
          Computer Physics Communications 180, 2175-2196 (2009)

          For any questions about FHI-aims, please visit the aimsclub website
          with its forums and wiki. Contributions to both the forums and the
          wiki are warmly encouraged - they are for you, and everyone is welcome there.

------------------------------------------------------------



  Date     :  20200710, Time     :  151127.114
  Time zero on CPU 1             :   0.112940000000000E-01  s.
  Internal wall clock time zero  :           363625887.114  s.

  FHI-aims created a unique identifier for this run for later identification
  aims_uuid : FBD297D1-6E5E-4E01-AFA4-CB0279BE9679

  Using        1 parallel tasks.
  Task        0 on host r18c47.bullx reporting.

  Performing system and environment tests:
  | Environment variable OMP_NUM_THREADS correctly set to 1.
  | Stacksize not measured: no C compiler
  | Checking for scalapack...
  | Testing pdtran()...
  | All pdtran() tests passed.

  Obtaining array dimensions for all initial allocations:
  
  -----------------------------------------------------------------------
  Parsing control.in (first pass over file, find array dimensions only).
  The contents of control.in will be repeated verbatim below
  unless switched off by setting 'verbatim_writeout .false.' .
  in the first line of control.in .
  -----------------------------------------------------------------------
  
  #########################################################################################
  #
  #  Volker Blum, FHI 2009 : Test run input file control.in for simple H2O
  #
  #########################################################################################
  #
  #  Physical model
  #
    xc                 pbe
    vdw_correction_hirshfeld
    spin               none
    relativistic       none
    charge             0.
  #
  #  SCF convergence
  #
    occupation_type    gaussian 0.01
    mixer              pulay
      n_max_pulay        10
      charge_mix_param   0.2
    sc_accuracy_rho    1E-5
    sc_accuracy_eev    1E-3
    sc_accuracy_etot   1E-6
    sc_accuracy_forces 1E-4
    sc_iter_limit      100
  #
  #  Relaxation
  #
  #  relax_geometry   bfgs 1.e-3
  #
  ################################################################################
  #
  #  FHI-aims code project
  #  VB, Fritz-Haber Institut, 2009
  #
  #  Suggested "light" defaults for H atom (to be pasted into control.in file)
  #  Be sure to double-check any results obtained with these settings for post-processing,
  #  e.g., with the "tight" defaults and larger basis sets.
  #
  ################################################################################
    species        H
  #     global species definitions
      nucleus             1
      mass                1.00794
  #
      l_hartree           4
  #
      cut_pot             3.5  1.5  1.0
      basis_dep_cutoff    1e-4
  #
      radial_base         24 5.0
      radial_multiplier   1
      angular_grids       specified
        division   0.2421   50
        division   0.3822  110
        division   0.4799  194
        division   0.5341  302
  #      division   0.5626  434
  #      division   0.5922  590
  #      division   0.6542  770
  #      division   0.6868 1202
  #      outer_grid  770
        outer_grid  302
  ################################################################################
  #
  #  Definition of "minimal" basis
  #
  ################################################################################
  #     valence basis states
      valence      1  s   1.
  #     ion occupancy
      ion_occ      1  s   0.5
  ################################################################################
  #
  #  Suggested additional basis functions. For production calculations,
  #  uncomment them one after another (the most important basis functions are
  #  listed first).
  #
  #  Basis constructed for dimers: 0.5 A, 0.7 A, 1.0 A, 1.5 A, 2.5 A
  #
  ################################################################################
  #  "First tier" - improvements: -1014.90 meV to -62.69 meV
       hydro 2 s 2.1
       hydro 2 p 3.5
  #  "Second tier" - improvements: -12.89 meV to -1.83 meV
  #     hydro 1 s 0.85
  #     hydro 2 p 3.7
  #     hydro 2 s 1.2
  #     hydro 3 d 7
  #  "Third tier" - improvements: -0.25 meV to -0.12 meV
  #     hydro 4 f 11.2
  #     hydro 3 p 4.8
  #     hydro 4 d 9
  #     hydro 3 s 3.2
  ################################################################################
  #
  #  FHI-aims code project
  #  VB, Fritz-Haber Institut, 2009
  #
  #  Suggested "light" defaults for C atom (to be pasted into control.in file)
  #  Be sure to double-check any results obtained with these settings for post-processing,
  #  e.g., with the "tight" defaults and larger basis sets.
  #
  ################################################################################
    species        C
  #     global species definitions
      nucleus             6
      mass                12.0107
  #
      l_hartree           4
  #
      cut_pot             3.5  1.5  1.0
      basis_dep_cutoff    1e-4
  #
      radial_base         34 5.0
      radial_multiplier   1
      angular_grids specified
        division   0.3326   50
        division   0.5710  110
        division   0.7727  194
        division   0.8772  302
  #      division   0.9334  434
  #      division   0.9625  590
  #      division   0.9924  770
  #      division   1.0230  974
  #      division   1.4589 1202
  #     outer_grid  974
       outer_grid 302
  ################################################################################
  #
  #  Definition of "minimal" basis
  #
  ################################################################################
  #     valence basis states
      valence      2  s   2.
      valence      2  p   2.
  #     ion occupancy
      ion_occ      2  s   1.
      ion_occ      2  p   1.
  ################################################################################
  #
  #  Suggested additional basis functions. For production calculations,
  #  uncomment them one after another (the most important basis functions are
  #  listed first).
  #
  #  Constructed for dimers: 1.0 A, 1.25 A, 1.5 A, 2.0 A, 3.0 A
  #
  ################################################################################
  #  "First tier" - improvements: -1214.57 meV to -155.61 meV
       hydro 2 p 1.7
       hydro 3 d 6
       hydro 2 s 4.9
  #  "Second tier" - improvements: -67.75 meV to -5.23 meV
  #     hydro 4 f 9.8
  #     hydro 3 p 5.2
  #     hydro 3 s 4.3
  #     hydro 5 g 14.4
  #     hydro 3 d 6.2
  #  "Third tier" - improvements: -2.43 meV to -0.60 meV
  #     hydro 2 p 5.6
  #     hydro 2 s 1.4
  #     hydro 3 d 4.9
  #     hydro 4 f 11.2
  #  "Fourth tier" - improvements: -0.39 meV to -0.18 meV
  #     hydro 2 p 2.1
  #     hydro 5 g 16.4
  #     hydro 4 d 13.2
  #     hydro 3 s 13.6
  #     hydro 4 f 17.6
  #  Further basis functions - improvements: -0.08 meV and below
  #     hydro 3 s 2
  #     hydro 3 p 6
  #     hydro 4 d 20
  ################################################################################
  #
  #  FHI-aims code project
  #  VB, Fritz-Haber Institut, 2009
  #
  #  Suggested "light" defaults for N atom (to be pasted into control.in file)
  #  Be sure to double-check any results obtained with these settings for post-processing,
  #  e.g., with the "tight" defaults and larger basis sets.
  #
  ################################################################################
    species        N
  #     global species definitions
      nucleus             7
      mass                14.0067
  #
      l_hartree           4
  #
      cut_pot             3.5  1.5  1.0
      basis_dep_cutoff    1e-4
  #
      radial_base         35 5.0
      radial_multiplier   1
      angular_grids       specified
        division   0.2599   50
        division   0.4601  110
        division   0.5885  194
        division   0.6503  302
  #      division   0.6939  434
  #      division   0.7396  590
  #      division   0.7632  770
  #      division   0.8122  974
  #      division   1.1604 1202
  #      outer_grid  974
        outer_grid  302
  ################################################################################
  #
  #  Definition of "minimal" basis
  #
  ################################################################################
  #     valence basis states
      valence      2  s   2.
      valence      2  p   3.
  #     ion occupancy
      ion_occ      2  s   1.
      ion_occ      2  p   2.
  ################################################################################
  #
  #  Suggested additional basis functions. For production calculations,
  #  uncomment them one after another (the most important basis functions are
  #  listed first).
  #
  #  Constructed for dimers: 1.0 A, 1.1 A, 1.5 A, 2.0 A, 3.0 A
  #
  ################################################################################
  #  "First tier" - improvements: -1193.42 meV to -220.60 meV
       hydro 2 p 1.8
       hydro 3 d 6.8
       hydro 3 s 5.8
  #  "Second tier" - improvements: -80.21 meV to -6.86 meV
  #     hydro 4 f 10.8
  #     hydro 3 p 5.8
  #     hydro 1 s 0.8
  #     hydro 5 g 16
  #     hydro 3 d 4.9
  #  "Third tier" - improvements: -4.29 meV to -0.53 meV
  #     hydro 3 s 16
  #     ionic 2 p auto
  #     hydro 3 d 6.6
  #     hydro 4 f 11.6
  #  "Fourth tier" - improvements: -0.75 meV to -0.25 meV
  #     hydro 2 p 4.5
  #     hydro 2 s 2.4
  #     hydro 5 g 14.4
  #     hydro 4 d 14.4
  #     hydro 4 f 16.8
  # Further basis functions - -0.21 meV and below
  #     hydro 3 p 14.8
  #     hydro 3 s 4.4
  #     hydro 3 d 19.6
  #     hydro 5 g 12.8
  ################################################################################
  #
  #  FHI-aims code project
  #  VB, Fritz-Haber Institut, 2009
  #
  #  Suggested "light" defaults for O atom (to be pasted into control.in file)
  #  Be sure to double-check any results obtained with these settings for post-processing,
  #  e.g., with the "tight" defaults and larger basis sets.
  #
  ################################################################################
    species        O
  #     global species definitions
      nucleus             8
      mass                15.9994
  #
      l_hartree           4
  #
      cut_pot             3.5  1.5  1.0
      basis_dep_cutoff    1e-4
  #
      radial_base         36 5.0
      radial_multiplier   1
       angular_grids specified
        division   0.2659   50
        division   0.4451  110
        division   0.6052  194
        division   0.7543  302
  #      division   0.8014  434
  #      division   0.8507  590
  #      division   0.8762  770
  #      division   0.9023  974
  #      division   1.2339 1202
  #      outer_grid 974
        outer_grid 302
  ################################################################################
  #
  #  Definition of "minimal" basis
  #
  ################################################################################
  #     valence basis states
      valence      2  s   2.
      valence      2  p   4.
  #     ion occupancy
      ion_occ      2  s   1.
      ion_occ      2  p   3.
  ################################################################################
  #
  #  Suggested additional basis functions. For production calculations,
  #  uncomment them one after another (the most important basis functions are
  #  listed first).
  #
  #  Constructed for dimers: 1.0 A, 1.208 A, 1.5 A, 2.0 A, 3.0 A
  #
  ################################################################################
  #  "First tier" - improvements: -699.05 meV to -159.38 meV
       hydro 2 p 1.8
       hydro 3 d 7.6
       hydro 3 s 6.4
  #  "Second tier" - improvements: -49.91 meV to -5.39 meV
  #     hydro 4 f 11.6
  #     hydro 3 p 6.2
  #     hydro 3 d 5.6
  #     hydro 5 g 17.6
  #     hydro 1 s 0.75
  #  "Third tier" - improvements: -2.83 meV to -0.50 meV
  #     ionic 2 p auto
  #     hydro 4 f 10.8
  #     hydro 4 d 4.7
  #     hydro 2 s 6.8
  #  "Fourth tier" - improvements: -0.40 meV to -0.12 meV
  #     hydro 3 p 5
  #     hydro 3 s 3.3
  #     hydro 5 g 15.6
  #     hydro 4 f 17.6
  #     hydro 4 d 14
  # Further basis functions - -0.08 meV and below
  #     hydro 3 s 2.1
  #     hydro 4 d 11.6
  #     hydro 3 p 16
  #     hydro 2 s 17.2
  
  -----------------------------------------------------------------------
  Completed first pass over input file control.in .
  -----------------------------------------------------------------------
  
  
  -----------------------------------------------------------------------
  Parsing geometry.in (first pass over file, find array dimensions only).
  The contents of geometry.in will be repeated verbatim below
  unless switched off by setting 'verbatim_writeout .false.' .
  in the first line of geometry.in .
  -----------------------------------------------------------------------
  
  atom  0.00000 0.00000 0.00000 C
  atom  1.09300 0.00000 0.00000 H
  atom  -0.47961 0.00000 -1.41207 N
  atom  -0.51549 0.96410 -1.74532 H
  atom  0.16894 -0.54382 -1.97755 H
  atom  -0.49584 1.26211 0.72868 C
  atom  -1.58789 1.28919 0.74431 H
  atom  -0.13407 1.27425 1.75947 H
  atom  -0.13407 2.16087 0.22380 H
  atom  -0.39425 -1.28861 0.74398 C
  atom  -0.10189 -1.56493 1.88303 O
  atom  -1.10210 -2.13717 0.06896 O
  atom  -0.56877 -2.93231 0.23716 H
  
  -----------------------------------------------------------------------
  Completed first pass over input file geometry.in .
  -----------------------------------------------------------------------
  

  Basic array size parameters:
  | Number of species                 :        4
  | Number of atoms                   :       13
  | Max. basis fn. angular momentum   :        2
  | Max. atomic/ionic basis occupied n:        2
  | Max. number of basis fn. types    :        2
  | Max. radial fns per species/type  :        3
  | Max. logarithmic grid size        :     1301
  | Max. radial integration grid size :       36
  | Max. angular integration grid size:      302
  | Max. angular grid division number :        8
  | Radial grid for Hartree potential :     1301
  | Number of spin channels           :        1

------------------------------------------------------------
          Reading file control.in.
------------------------------------------------------------
  XC: Using PBE gradient-corrected functionals.
  Spin treatment: No spin polarisation.
  Non-relativistic treatment of kinetic energy.
  Charge =   0.000000E+00: Neutral system requested explicitly.
  Occupation type: Gaussian broadening, width =   0.100000E-01 eV.
  Using pulay charge density mixing.
  Pulay mixing - number of memorized iterations:   10
  Charge density mixing - mixing parameter:     0.2000
  Convergence accuracy of self-consistent charge density:  0.1000E-04
  Convergence accuracy of sum of eigenvalues:  0.1000E-02
  Convergence accuracy of total energy:  0.1000E-05
  Convergence accuracy of forces:  0.1000E-03
  Maximum number of s.-c. iterations  :   100
 
  Reading configuration options for species H                   .
  | Found nuclear charge :   1.0000
  | Found atomic mass :    1.00794000000000      amu
  | Found l_max for Hartree potential  :   4
  | Found cutoff potl. onset [A], width [A], scale factor :    3.50000    1.50000    1.00000
  | Threshold for basis-dependent cutoff potential is   0.100000E-03
  | Found data for basic radial integration grid :    24 points, outermost radius =    5.000 A
  | Found multiplier for basic radial grid :   1
  | Found angular grid specification: user-specified.
  | Specified grid contains     5 separate shells.
  | Check grid settings after all constraints further below.
  | Found free-atom valence shell :  1 s   1.000
  | No ionic wave fns used. Skipping ion_occ.
  | Found hydrogenic basis function :  2 s   2.100
  | Found hydrogenic basis function :  2 p   3.500
  Species H                   : Missing cutoff potential type.
  Defaulting to exp(1/x)/(1-x)^2 type cutoff potential.
  Species H : No 'logarithmic' tag. Using default grid for free atom:
  | Default logarithmic grid data [bohr] : 0.1000E-03 0.1000E+03 0.1012E+01
  Species H : On-site basis accuracy parameter (for Gram-Schmidt orthonormalisation) not specified.
  Using default value basis_acc =  0.1000000E-03.
  Species H                   : Using default innermost maximum threshold i_radial=  2 for radial functions.
  Species H                   : Default cutoff onset for free atom density etc. : 0.35000000E+01 AA.
  Species H                   : Basic radial grid will be enhanced according to radial_multiplier =   1, to contain    24 grid points.
 
  Reading configuration options for species C                   .
  | Found nuclear charge :   6.0000
  | Found atomic mass :    12.0107000000000      amu
  | Found l_max for Hartree potential  :   4
  | Found cutoff potl. onset [A], width [A], scale factor :    3.50000    1.50000    1.00000
  | Threshold for basis-dependent cutoff potential is   0.100000E-03
  | Found data for basic radial integration grid :    34 points, outermost radius =    5.000 A
  | Found multiplier for basic radial grid :   1
  | Found angular grid specification: user-specified.
  | Specified grid contains     5 separate shells.
  | Check grid settings after all constraints further below.
  | Found free-atom valence shell :  2 s   2.000
  | Found free-atom valence shell :  2 p   2.000
  | No ionic wave fns used. Skipping ion_occ.
  | No ionic wave fns used. Skipping ion_occ.
  | Found hydrogenic basis function :  2 p   1.700
  | Found hydrogenic basis function :  3 d   6.000
  | Found hydrogenic basis function :  2 s   4.900
  Species C                   : Missing cutoff potential type.
  Defaulting to exp(1/x)/(1-x)^2 type cutoff potential.
  Species C : No 'logarithmic' tag. Using default grid for free atom:
  | Default logarithmic grid data [bohr] : 0.1000E-03 0.1000E+03 0.1012E+01
  Species C : On-site basis accuracy parameter (for Gram-Schmidt orthonormalisation) not specified.
  Using default value basis_acc =  0.1000000E-03.
  Species C                   : Using default innermost maximum threshold i_radial=  2 for radial functions.
  Species C                   : Default cutoff onset for free atom density etc. : 0.35000000E+01 AA.
  Species C                   : Basic radial grid will be enhanced according to radial_multiplier =   1, to contain    34 grid points.
 
  Reading configuration options for species N                   .
  | Found nuclear charge :   7.0000
  | Found atomic mass :    14.0067000000000      amu
  | Found l_max for Hartree potential  :   4
  | Found cutoff potl. onset [A], width [A], scale factor :    3.50000    1.50000    1.00000
  | Threshold for basis-dependent cutoff potential is   0.100000E-03
  | Found data for basic radial integration grid :    35 points, outermost radius =    5.000 A
  | Found multiplier for basic radial grid :   1
  | Found angular grid specification: user-specified.
  | Specified grid contains     5 separate shells.
  | Check grid settings after all constraints further below.
  | Found free-atom valence shell :  2 s   2.000
  | Found free-atom valence shell :  2 p   3.000
  | No ionic wave fns used. Skipping ion_occ.
  | No ionic wave fns used. Skipping ion_occ.
  | Found hydrogenic basis function :  2 p   1.800
  | Found hydrogenic basis function :  3 d   6.800
  | Found hydrogenic basis function :  3 s   5.800
  Species N                   : Missing cutoff potential type.
  Defaulting to exp(1/x)/(1-x)^2 type cutoff potential.
  Species N : No 'logarithmic' tag. Using default grid for free atom:
  | Default logarithmic grid data [bohr] : 0.1000E-03 0.1000E+03 0.1012E+01
  Species N : On-site basis accuracy parameter (for Gram-Schmidt orthonormalisation) not specified.
  Using default value basis_acc =  0.1000000E-03.
  Species N                   : Using default innermost maximum threshold i_radial=  2 for radial functions.
  Species N                   : Default cutoff onset for free atom density etc. : 0.35000000E+01 AA.
  Species N                   : Basic radial grid will be enhanced according to radial_multiplier =   1, to contain    35 grid points.
 
  Reading configuration options for species O                   .
  | Found nuclear charge :   8.0000
  | Found atomic mass :    15.9994000000000      amu
  | Found l_max for Hartree potential  :   4
  | Found cutoff potl. onset [A], width [A], scale factor :    3.50000    1.50000    1.00000
  | Threshold for basis-dependent cutoff potential is   0.100000E-03
  | Found data for basic radial integration grid :    36 points, outermost radius =    5.000 A
  | Found multiplier for basic radial grid :   1
  | Found angular grid specification: user-specified.
  | Specified grid contains     5 separate shells.
  | Check grid settings after all constraints further below.
  | Found free-atom valence shell :  2 s   2.000
  | Found free-atom valence shell :  2 p   4.000
  | No ionic wave fns used. Skipping ion_occ.
  | No ionic wave fns used. Skipping ion_occ.
  | Found hydrogenic basis function :  2 p   1.800
  | Found hydrogenic basis function :  3 d   7.600
  | Found hydrogenic basis function :  3 s   6.400
  Species O                   : Missing cutoff potential type.
  Defaulting to exp(1/x)/(1-x)^2 type cutoff potential.
  Species O : No 'logarithmic' tag. Using default grid for free atom:
  | Default logarithmic grid data [bohr] : 0.1000E-03 0.1000E+03 0.1012E+01
  Species O : On-site basis accuracy parameter (for Gram-Schmidt orthonormalisation) not specified.
  Using default value basis_acc =  0.1000000E-03.
  Species O                   : Using default innermost maximum threshold i_radial=  2 for radial functions.
  Species O                   : Default cutoff onset for free atom density etc. : 0.35000000E+01 AA.
  Species O                   : Basic radial grid will be enhanced according to radial_multiplier =   1, to contain    36 grid points.
 
  Finished reading input file 'control.in'. Consistency checks are next.
 
  MPI_IN_PLACE appears to work with this MPI implementation.
  | Keeping use_mpi_in_place .true. (see manual).
  Target number of points in a grid batch is not set. Defaulting to  100
  Method for grid partitioning is not set. Defaulting to parallel hash+maxmin partitioning.
  Batch size limit is not set. Defaulting to    200
  By default, will store active basis functions for each batch.
  If in need of memory, prune_basis_once .false. can be used to disable this option.
  communication_type for Hartree potential was not specified.
  Defaulting to calc_hartree .
  Pulay mixer: Number of initial linear mixing iterations not set.
  Defaulting to    0 iterations.
  Work space size for distributed Hartree potential not set.
  Defaulting to   0.200000E+03 MB.
  Algorithm-dependent basis array size parameters:
  | n_max_pulay                         :       10
  Presetting      1001 iterations before the initial mixing cycle
  is restarted anyway using the sc_init_iter criterion / keyword.
  Presetting a factor      1.000 between actual scf density residual
  and density convergence criterion sc_accuracy_rho below which sc_init_iter
  takes no effect.
  Geometry relaxation not requested: no relaxation will be performed.
  Handling of forces: Unphysical translation and rotation will be removed from forces.
  No accuracy limit for integral partition fn. given. Defaulting to  0.1000E-14.
  No threshold value for u(r) in integrations given. Defaulting to  0.1000E-05.
  No accuracy for occupation numbers given. Defaulting to  0.1000E-12.
  No threshold value for occupation numbers given. Defaulting to  0.0000E+00.
  No accuracy for fermi level given. Defaulting to  0.1000E-19.
  Maximum # of iterations to find E_F not set. Defaulting to  200.
  Preferred method for the eigenvalue solver ('KS_method') not specified in 'control.in'.
  Defaulting to serial version, 'lapack_fast'.
  Will not use alltoall communication since running on < 1024 CPUs.
  Threshold for basis singularities not set.
  Default threshold for basis singularities:  0.1000E-04
  partition_type (choice of integration weights) for integrals was not specified.
  | Using a version of the partition function of Stratmann and coworkers ('stratmann_smoother').
  | At each grid point, the set of atoms used to build the partition table is smoothly restricted to
  | only those atoms whose free-atom density would be non-zero at that grid point.
  Partitioning for Hartree potential was not defined. Using partition_type for integrals.
  | Adjusted default value of keyword multip_moments_threshold to:       0.10000000E-11
  | This value may affect high angular momentum components of the Hartree potential in periodic systems.
  No q(lm)/r^(l+1) cutoff set for long-range Hartree potential.
  | Using default value of  0.100000E-09 .
  | Verify using the multipole_threshold keyword.
  Defaulting to new monopole extrapolation.
  Density update method: automatic selection selected.
------------------------------------------------------------


------------------------------------------------------------
          Reading geometry description geometry.in.
------------------------------------------------------------
  Input structure read successfully.
  The structure contains       13 atoms,  and a total of         48.000 electrons.

  Input geometry:
  | No unit cell requested.
  | Atomic structure:
  |       Atom                x [A]            y [A]            z [A]
  |    1: Species C             0.00000000        0.00000000        0.00000000
  |    2: Species H             1.09300000        0.00000000        0.00000000
  |    3: Species N            -0.47961000        0.00000000       -1.41207000
  |    4: Species H            -0.51549000        0.96410000       -1.74532000
  |    5: Species H             0.16894000       -0.54382000       -1.97755000
  |    6: Species C            -0.49584000        1.26211000        0.72868000
  |    7: Species H            -1.58789000        1.28919000        0.74431000
  |    8: Species H            -0.13407000        1.27425000        1.75947000
  |    9: Species H            -0.13407000        2.16087000        0.22380000
  |   10: Species C            -0.39425000       -1.28861000        0.74398000
  |   11: Species O            -0.10189000       -1.56493000        1.88303000
  |   12: Species O            -1.10210000       -2.13717000        0.06896000
  |   13: Species H            -0.56877000       -2.93231000        0.23716000
  |

  | The smallest distance between any two atoms is         0.97210069 AA.
  |
  | The first atom of this pair is atom number                     12 .
  | The second atom of this pair is atom number                    13 .

  Number of empty states per atom not set in control.in - providing a guess from actual geometry.
  | Total number of empty states used during s.c.f. cycle:       29
  If you use a very high smearing, use empty_states (per atom!) in control.in to increase this value.

  Structure-dependent array size parameters: 
  | Maximum number of distinct radial functions  :       21
  | Maximum number of basis functions            :      119
  | Number of Kohn-Sham states (occupied + empty):       53
------------------------------------------------------------

------------------------------------------------------------
          Preparing all fixed parts of the calculation.
------------------------------------------------------------
  Determining machine precision:
    2.225073858507201E-308
  Setting up grids for atomic and cluster calculations.

  Creating wave function, potential, and density for free atoms.

  Species: H

  List of occupied orbitals and eigenvalues:
    n    l              occ      energy [Ha]    energy [eV]
    1    0           1.0000        -0.237589        -6.4651


  Species: C

  List of occupied orbitals and eigenvalues:
    n    l              occ      energy [Ha]    energy [eV]
    1    0           2.0000       -10.038835      -273.1706
    2    0           2.0000        -0.502696       -13.6791
    2    1           2.0000        -0.191971        -5.2238


  Species: N

  List of occupied orbitals and eigenvalues:
    n    l              occ      energy [Ha]    energy [eV]
    1    0           2.0000       -14.128000      -384.4424
    2    0           2.0000        -0.681077       -18.5330
    2    1           3.0000        -0.259788        -7.0692


  Species: O

  List of occupied orbitals and eigenvalues:
    n    l              occ      energy [Ha]    energy [eV]
    1    0           2.0000       -18.898188      -514.2459
    2    0           2.0000        -0.878505       -23.9053
    2    1           4.0000        -0.331779        -9.0282

  Creating fixed part of basis set: Ionic, confined, hydrogenic.
 
  H                    hydrogenic:
 
  List of hydrogenic basis orbitals: 
    n    l      effective z      eigenvalue [eV]  inner max. [A]     outer max. [A]     outer radius [A]   
    2    0         2.100000       -14.9728           0.193243           1.317208           4.583499
    2    1         3.500000       -41.6669           0.602369           0.602369           3.723403
 
 
  C                    hydrogenic:
 
  List of hydrogenic basis orbitals: 
    n    l      effective z      eigenvalue [eV]  inner max. [A]     outer max. [A]     outer radius [A]   
    2    1         1.700000        -9.7616           1.230570           1.230570           4.607917
    3    2         6.000000       -54.4224           0.792453           0.792453           3.883070
    2    0         4.900000       -81.6679           0.082559           0.562749           3.078220
 
 
  N                    hydrogenic:
 
  List of hydrogenic basis orbitals: 
    n    l      effective z      eigenvalue [eV]  inner max. [A]     outer max. [A]     outer radius [A]   
    2    1         1.800000       -10.9749           1.177451           1.177451           4.573712
    3    2         6.800000       -69.9026           0.704619           0.704619           3.538137
    3    0         5.800000       -50.8545           0.067388           1.191934           4.250239
 
 
  O                    hydrogenic:
 
  List of hydrogenic basis orbitals: 
    n    l      effective z      eigenvalue [eV]  inner max. [A]     outer max. [A]     outer radius [A]   
    2    1         1.800000       -10.9749           1.164242           1.164242           4.578029
    3    2         7.600000       -87.3180           0.624125           0.624125           3.251020
    3    0         6.400000       -61.9207           0.061167           1.081902           4.001998
 

  Adding cutoff potential to free-atom effective potential.
  Creating atomic-like basis functions for current effective potential.

  Species H                   :

  List of atomic basis orbitals and eigenvalues:
    n    l      energy [Ha]    energy [eV]    outer radius [A]
    1    0        -0.237589        -6.4651       4.527807


  Species C                   :

  List of atomic basis orbitals and eigenvalues:
    n    l      energy [Ha]    energy [eV]    outer radius [A]
    1    0       -10.038835      -273.1706       1.934409
    2    0        -0.502696       -13.6791       4.496620
    2    1        -0.191971        -5.2238       4.551928


  Species N                   :

  List of atomic basis orbitals and eigenvalues:
    n    l      energy [Ha]    energy [eV]    outer radius [A]
    1    0       -14.128000      -384.4424       1.637919
    2    0        -0.681077       -18.5330       4.463241
    2    1        -0.259788        -7.0692       4.518138


  Species O                   :

  List of atomic basis orbitals and eigenvalues:
    n    l      energy [Ha]    energy [eV]    outer radius [A]
    1    0       -18.898188      -514.2459       1.415765
    2    0        -0.878505       -23.9053       4.413171
    2    1        -0.331779        -9.0282       4.522403

  Assembling full basis from fixed parts.
  | Species H :   atomic orbital   1 s accepted.
  | Species H :    hydro orbital   2 s accepted.
  | Species H :    hydro orbital   2 p accepted.
  | Species C :   atomic orbital   1 s accepted.
  | Species C :    hydro orbital   2 s accepted.
  | Species C :   atomic orbital   2 s accepted.
  | Species C :   atomic orbital   2 p accepted.
  | Species C :    hydro orbital   2 p accepted.
  | Species C :    hydro orbital   3 d accepted.
  | Species N :   atomic orbital   1 s accepted.
  | Species N :    hydro orbital   3 s accepted.
  | Species N :   atomic orbital   2 s accepted.
  | Species N :   atomic orbital   2 p accepted.
  | Species N :    hydro orbital   2 p accepted.
  | Species N :    hydro orbital   3 d accepted.
  | Species O :   atomic orbital   1 s accepted.
  | Species O :    hydro orbital   3 s accepted.
  | Species O :   atomic orbital   2 s accepted.
  | Species O :   atomic orbital   2 p accepted.
  | Species O :    hydro orbital   2 p accepted.
  | Species O :    hydro orbital   3 d accepted.
 
  Basis size parameters after reduction:
  | Total number of radial functions:       21
  | Total number of basis functions :      119
 
  Per-task memory consumption for arrays in subroutine allocate_ext:
  |           5.250512MB.
  Testing on-site integration grid accuracy.
  |  Species  Function  <phi|h_atom|phi> (log., in eV)  <phi|h_atom|phi> (rad., in eV)
           1        1                 -6.4663192853                 -6.4651273558
           1        2                 13.7111246313                 13.7170609718
           1        3                 25.2673269279                 25.2674696378
           2        4               -273.1705927641               -273.1705631568
           2        5                -10.7109323383                -10.7107120029
           2        6                 17.4381822266                 17.4352413244
           2        7                 -5.2255326521                 -5.2270484734
           2        8                  8.6835629259                  8.6603288385
           2        9                 27.4952418996                 27.4953360207
           3       10               -384.4424306495               -384.4423701208
           3       11                 12.5842251816                 12.5842222903
           3       12                -15.7264628251                -15.7264433455
           3       13                 -7.0696854293                 -7.0701769954
           3       14                  8.8090390882                  8.7901077751
           3       15                 35.9586762123                 35.9588528632
           4       16               -514.2458688638               -514.2457643834
           4       17                 15.1795651126                 15.1795290741
           4       18                -21.5359799773                -21.5360846186
           4       19                 -9.0283069236                 -9.0284644067
           4       20                  8.3027758564                  8.2834874195
           4       21                 45.8339351984                 45.8338762259

  Preparing densities etc. for the partition functions (integrals / Hartree potential).

  Preparations completed.
  max(cpu_time)          :      0.146 s.
  Wall clock time (cpu1) :      0.147 s.
------------------------------------------------------------

------------------------------------------------------------
          Begin self-consistency loop: Initialization.

          Date     :  20200710, Time     :  151127.274
------------------------------------------------------------

  Initializing index lists of integration centers etc. from given atomic structure:
  | Number of centers in hartree potential         :        13
  | Number of centers in hartree multipole         :        13
  | Number of centers in electron density summation:        13
  | Number of centers in basis integrals           :        13
  | Number of centers in integrals                 :        13
  | Number of centers in hamiltonian               :        13
  Partitioning the integration grid into batches with parallel hashing+maxmin method.
  | Number of batches:      955
  | Maximal batch size:     139
  | Minimal batch size:      66
  | Average batch size:      72.928
  | Standard deviation of batch sizes:      17.646

  Integration load balanced across     1 MPI tasks.
  Work distribution over tasks is as follows:
  Task     0 has      69646 integration points.
  Initializing partition tables, free-atom densities, potentials, etc. across the integration grid (initialize_grid_storage).
  | initialize_grid_storage: Actual outermost partition radius vs. multipole_radius_free
  | (-- VB: in principle, multipole_radius_free should be larger, hence this output)
  | Species        1: Confinement radius =              4.999999999999999 AA, multipole_radius_free =              5.054417573612229 AA.
  | Species        1: outer_partition_radius set to              5.054417573612229 AA .
  | Species        2: Confinement radius =              4.999999999999999 AA, multipole_radius_free =              5.019602836301480 AA.
  | Species        2: outer_partition_radius set to              5.019602836301480 AA .
  | Species        3: Confinement radius =              4.999999999999999 AA, multipole_radius_free =              5.043624274424571 AA.
  | Species        3: outer_partition_radius set to              5.043624274424571 AA .
  | Species        4: Confinement radius =              4.999999999999999 AA, multipole_radius_free =              5.048384829883283 AA.
  | Species        4: outer_partition_radius set to              5.048384829883283 AA .
  | Original list of interatomic distances with          13 x         13 entries is created.
  | Net number of integration points:    69646
  | of which are non-zero points    :    59593
  Renormalizing the initial density to the exact electron count on the 3D integration grid.
  | Initial density: Formal number of electrons (from input files) :      48.0000000000
  | Integrated number of electrons on 3D grid     :      47.9999531095
  | Charge integration error                      :      -0.0000468905
  | Normalization factor for density and gradient :       1.0000009769
  Obtaining max. number of non-zero basis functions in each batch (get_n_compute_maxes).
  | Maximal number of non-zero basis functions:      119 in task     0
  Selecting the method for density update.
  Loop over occupied states selected for charge density update.
  Allocating        0.050 MB for KS_eigenvector
  Integrating Hamiltonian matrix: batch-based integration.
  Time summed over all CPUs for integration: real work        0.488 s, elapsed        0.488 s
  Integrating overlap matrix.
  Time summed over all CPUs for integration: real work        0.209 s, elapsed        0.209 s

  Updating Kohn-Sham eigenvalues and eigenvectors using ELSI and the ELPA eigensolver.
  Overlap matrix is nonsingular
  | Lowest eigenvalue of overlap  :  0.51E-02
  | Highest eigenvalue of overlap :  0.61E+01
  Finished singularity check of overlap matrix
  | Time :     0.002 s
  Finished Cholesky decomposition
  | Time :     0.000 s
  Finished transformation to standard eigenproblem
  | Time :     0.000 s
  Starting LAPACK eigensolver
  Finished solving standard eigenproblem
  | Time :     0.002 s
  Finished back-transformation of eigenvectors
  | Time :     0.000 s

  Obtaining occupation numbers and chemical potential using ELSI.
  | Chemical potential (Fermi level):    -9.74206874eV
  Writing Kohn-Sham eigenvalues.

  State    Occupation    Eigenvalue [Ha]    Eigenvalue [eV]
      1       2.00000         -19.007523         -517.22101
      2       2.00000         -18.977757         -516.41103
      3       2.00000         -14.245791         -387.64769
      4       2.00000         -10.166796         -276.65259
      5       2.00000         -10.141251         -275.95748
      6       2.00000         -10.131912         -275.70336
      7       2.00000          -1.185809          -32.26751
      8       2.00000          -1.094296          -29.77730
      9       2.00000          -0.991581          -26.98228
     10       2.00000          -0.860371          -23.41190
     11       2.00000          -0.760279          -20.68825
     12       2.00000          -0.678927          -18.47454
     13       2.00000          -0.621828          -16.92081
     14       2.00000          -0.599939          -16.32518
     15       2.00000          -0.590968          -16.08106
     16       2.00000          -0.576620          -15.69062
     17       2.00000          -0.549602          -14.95543
     18       2.00000          -0.534155          -14.53510
     19       2.00000          -0.513951          -13.98531
     20       2.00000          -0.498949          -13.57708
     21       2.00000          -0.466489          -12.69382
     22       2.00000          -0.430135          -11.70456
     23       2.00000          -0.408699          -11.12127
     24       2.00000          -0.381059          -10.36916
     25       0.00000          -0.157915           -4.29710
     26       0.00000          -0.061555           -1.67499
     27       0.00000          -0.028538           -0.77657
     28       0.00000          -0.025783           -0.70159
     29       0.00000           0.000899            0.02446
     30       0.00000           0.005965            0.16231
     31       0.00000           0.020726            0.56398
     32       0.00000           0.026750            0.72792
     33       0.00000           0.039645            1.07878
     34       0.00000           0.077765            2.11610
     35       0.00000           0.084635            2.30304
     36       0.00000           0.134124            3.64971
     37       0.00000           0.156338            4.25417
     38       0.00000           0.197175            5.36540
     39       0.00000           0.210047            5.71566
     40       0.00000           0.235354            6.40431
     41       0.00000           0.242368            6.59517
     42       0.00000           0.271594            7.39046
     43       0.00000           0.294298            8.00826
     44       0.00000           0.303406            8.25610
     45       0.00000           0.340174            9.25659
     46       0.00000           0.361297            9.83140
     47       0.00000           0.376645           10.24904
     48       0.00000           0.415257           11.29972
     49       0.00000           0.427623           11.63622
     50       0.00000           0.467861           12.73115
     51       0.00000           0.487394           13.26267
     52       0.00000           0.546700           14.87646
     53       0.00000           0.559174           15.21591

  Highest occupied state (VBM) at    -10.36915514 eV
  | Occupation number:      2.00000000

  Lowest unoccupied state (CBM) at    -4.29709522 eV
  | Occupation number:      0.00000000

  Overall HOMO-LUMO gap:      6.07205992 eV.
  Calculating total energy contributions from superposition of free atom densities.

  Total energy components:
  | Sum of eigenvalues            :        -188.82937438 Ha       -5138.30871125 eV
  | XC energy correction          :         -41.78330011 Ha       -1136.98144507 eV
  | XC potential correction       :          53.71242786 Ha        1461.58952696 eV
  | Free-atom electrostatic energy:        -146.86359206 Ha       -3996.36167267 eV
  | Hartree energy correction     :           0.00000000 Ha           0.00000000 eV
  | vdW energy correction         :           0.00000000 Ha           0.00000000 eV
  | Entropy correction            :           0.00000000 Ha           0.00000000 eV
  | ---------------------------
  | Total energy                  :        -323.76383870 Ha       -8810.06230203 eV
  | Total energy, T -> 0          :        -323.76383870 Ha       -8810.06230203 eV  <-- do not rely on this value for anything but (periodic) metals
  | Electronic free energy        :        -323.76383870 Ha       -8810.06230203 eV

  Derived energy quantities:
  | Kinetic energy                :         320.48183926 Ha        8720.75455341 eV
  | Electrostatic energy          :        -602.46237785 Ha      -16393.83541037 eV
  | Energy correction for multipole
  | error in Hartree potential    :           0.00000000 Ha           0.00000000 eV
  | Sum of eigenvalues per atom                           :        -395.25451625 eV
  | Total energy (T->0) per atom                          :        -677.69710016 eV  <-- do not rely on this value for anything but (periodic) metals
  | Electronic free energy per atom                       :        -677.69710016 eV
  Initialize hartree_potential_storage
  Max. number of atoms included in rho_multipole:           13

  End scf initialization - timings             :  max(cpu_time)    wall_clock(cpu1)
  | Time for scf. initialization               :        1.138 s           1.139 s
  | Boundary condition initialization          :        0.000 s           0.000 s
  | Integration                                :        0.697 s           0.697 s
  | Solution of K.-S. eqns.                    :        0.004 s           0.004 s
  | Grid partitioning                          :        0.111 s           0.111 s
  | Preloading free-atom quantities on grid    :        0.002 s           0.002 s
  | Free-atom superposition energy             :        0.084 s           0.084 s
  | Total energy evaluation                    :        0.000 s           0.000 s

  Partial memory accounting:
  | Current value for overall tracked memory usage on task 0  :           0.165 MB
  | Peak value for overall tracked memory usage on task 0     :           0.678 MB after allocating wave
  | Largest tracked array allocation on task 0 so far         :           0.132 MB  when allocating H_times_psi
  Note:  These values currently only include a subset of arrays which are explicitly tracked.
  The "true" memory usage will be greater.
------------------------------------------------------------

------------------------------------------------------------
          Begin self-consistency iteration #    1

  Date     :  20200710, Time     :  151128.414
------------------------------------------------------------
  Evaluating new KS density.
  Integration grid: deviation in total charge (<rho> - N_e) =   4.263256E-14
  Pulay mixing of updated and previous charge densities.

  Evaluating partitioned Hartree potential by multipole expansion.
  | Analytical far-field extrapolation by fixed multipoles:
  | Hartree multipole sum: apparent total charge =  -0.157530E-03
  Summing up the Hartree potential.
  Time summed over all CPUs for potential: real work        0.283 s, elapsed        0.283 s
  | RMS charge density error from multipole expansion :   0.580858E-02

  Integrating Hamiltonian matrix: batch-based integration.
  Time summed over all CPUs for integration: real work        0.488 s, elapsed        0.488 s

  Updating Kohn-Sham eigenvalues and eigenvectors using ELSI and the ELPA eigensolver.
  Finished Cholesky decomposition
  | Time :     0.000 s
  Finished transformation to standard eigenproblem
  | Time :     0.000 s
  Starting LAPACK eigensolver
  Finished solving standard eigenproblem
  | Time :     0.001 s
  Finished back-transformation of eigenvectors
  | Time :     0.000 s

  Obtaining occupation numbers and chemical potential using ELSI.
  | Chemical potential (Fermi level):    -4.42126486eV
  Writing Kohn-Sham eigenvalues.

  State    Occupation    Eigenvalue [Ha]    Eigenvalue [eV]
      1       2.00000         -18.896321         -514.19506
      2       2.00000         -18.838189         -512.61320
      3       2.00000         -14.094567         -383.53269
      4       2.00000         -10.114103         -275.21874
      5       2.00000         -10.062020         -273.80151
      6       2.00000         -10.031707         -272.97664
      7       2.00000          -1.133400          -30.84138
      8       2.00000          -1.030031          -28.02858
      9       2.00000          -0.920717          -25.05400
     10       2.00000          -0.793849          -21.60174
     11       2.00000          -0.708227          -19.27184
     12       2.00000          -0.631491          -17.18375
     13       2.00000          -0.559139          -15.21496
     14       2.00000          -0.539443          -14.67898
     15       2.00000          -0.533251          -14.51049
     16       2.00000          -0.517213          -14.07408
     17       2.00000          -0.491535          -13.37534
     18       2.00000          -0.472552          -12.85879
     19       2.00000          -0.448252          -12.19757
     20       2.00000          -0.439201          -11.95126
     21       2.00000          -0.406421          -11.05929
     22       2.00000          -0.368114          -10.01689
     23       2.00000          -0.335561           -9.13107
     24       2.00000          -0.308661           -8.39909
     25       0.00000          -0.121072           -3.29453
     26       0.00000          -0.035931           -0.97774
     27       0.00000          -0.006673           -0.18158
     28       0.00000           0.014572            0.39651
     29       0.00000           0.031775            0.86465
     30       0.00000           0.044222            1.20333
     31       0.00000           0.060342            1.64199
     32       0.00000           0.067364            1.83305
     33       0.00000           0.080167            2.18147
     34       0.00000           0.117442            3.19576
     35       0.00000           0.127316            3.46445
     36       0.00000           0.162010            4.40852
     37       0.00000           0.185274            5.04157
     38       0.00000           0.228183            6.20917
     39       0.00000           0.240473            6.54361
     40       0.00000           0.270725            7.36681
     41       0.00000           0.279690            7.61074
     42       0.00000           0.310038            8.43657
     43       0.00000           0.329972            8.97900
     44       0.00000           0.339664            9.24273
     45       0.00000           0.382821           10.41709
     46       0.00000           0.404064           10.99514
     47       0.00000           0.415749           11.31311
     48       0.00000           0.454489           12.36726
     49       0.00000           0.459952           12.51594
     50       0.00000           0.505064           13.74349
     51       0.00000           0.527609           14.35698
     52       0.00000           0.579410           15.76654
     53       0.00000           0.599060           16.30125

  Highest occupied state (VBM) at     -8.39909054 eV
  | Occupation number:      2.00000000

  Lowest unoccupied state (CBM) at    -3.29453140 eV
  | Occupation number:      0.00000000

  Overall HOMO-LUMO gap:      5.10455915 eV.

  Total energy components:
  | Sum of eigenvalues            :        -185.34793271 Ha       -5043.57386317 eV
  | XC energy correction          :         -42.11394734 Ha       -1145.97881377 eV
  | XC potential correction       :          54.14253991 Ha        1473.29347133 eV
  | Free-atom electrostatic energy:        -146.86359206 Ha       -3996.36167267 eV
  | Hartree energy correction     :          -3.39696896 Ha         -92.43622842 eV
  | vdW energy correction         :           0.00000000 Ha           0.00000000 eV
  | Entropy correction            :           0.00000000 Ha           0.00000000 eV
  | ---------------------------
  | Total energy                  :        -323.57990115 Ha       -8805.05710670 eV
  | Total energy, T -> 0          :        -323.57990115 Ha       -8805.05710670 eV  <-- do not rely on this value for anything but (periodic) metals
  | Electronic free energy        :        -323.57990115 Ha       -8805.05710670 eV

  Derived energy quantities:
  | Kinetic energy                :         322.28376493 Ha        8769.78744575 eV
  | Electrostatic energy          :        -603.74971875 Ha      -16428.86573868 eV
  | Energy correction for multipole
  | error in Hartree potential    :           0.01218472 Ha           0.33156298 eV
  | Sum of eigenvalues per atom                           :        -387.96722024 eV
  | Total energy (T->0) per atom                          :        -677.31208513 eV  <-- do not rely on this value for anything but (periodic) metals
  | Electronic free energy per atom                       :        -677.31208513 eV

  Self-consistency convergence accuracy:
  | Change of charge density      :  0.5862E+00
  | Change of sum of eigenvalues  :  0.9473E+02 eV
  | Change of total energy        :  0.5005E+01 eV

  End self-consistency iteration #     1       :  max(cpu_time)    wall_clock(cpu1)
  | Time for this iteration                    :        1.191 s           1.192 s
  | Charge density update                      :        0.402 s           0.401 s
  | Density mixing                             :        0.005 s           0.006 s
  | Hartree multipole update                   :        0.009 s           0.009 s
  | Hartree multipole summation                :        0.284 s           0.284 s
  | Integration                                :        0.488 s           0.489 s
  | Solution of K.-S. eqns.                    :        0.002 s           0.002 s
  | Total energy evaluation                    :        0.000 s           0.000 s

  Partial memory accounting:
  | Current value for overall tracked memory usage on task 0  :           0.165 MB
  | Peak value for overall tracked memory usage on task 0     :           0.695 MB after allocating gradient_basis_wave
  | Largest tracked array allocation on task 0 so far         :           0.397 MB  when allocating gradient_basis_wave
  Note:  These values currently only include a subset of arrays which are explicitly tracked.
  The "true" memory usage will be greater.
------------------------------------------------------------

------------------------------------------------------------
          Begin self-consistency iteration #    2

  Date     :  20200710, Time     :  151129.606
------------------------------------------------------------
  Evaluating new KS density.
  Integration grid: deviation in total charge (<rho> - N_e) =   7.105427E-15
  Pulay mixing of updated and previous charge densities.

  Evaluating partitioned Hartree potential by multipole expansion.
  | Analytical far-field extrapolation by fixed multipoles:
  | Hartree multipole sum: apparent total charge =  -0.299382E-03
  Summing up the Hartree potential.
  Time summed over all CPUs for potential: real work        0.283 s, elapsed        0.283 s
  | RMS charge density error from multipole expansion :   0.138145E-01

  Integrating Hamiltonian matrix: batch-based integration.
  Time summed over all CPUs for integration: real work        0.488 s, elapsed        0.488 s

  Updating Kohn-Sham eigenvalues and eigenvectors using ELSI and the ELPA eigensolver.
  Finished Cholesky decomposition
  | Time :     0.000 s
  Finished transformation to standard eigenproblem
  | Time :     0.000 s
  Starting LAPACK eigensolver
  Finished solving standard eigenproblem
  | Time :     0.002 s
  Finished back-transformation of eigenvectors
  | Time :     0.000 s

  Obtaining occupation numbers and chemical potential using ELSI.
  | Chemical potential (Fermi level):    -3.04080291eV
  Highest occupied state (VBM) at     -6.39115790 eV
  | Occupation number:      2.00000000

  Lowest unoccupied state (CBM) at    -2.03535168 eV
  | Occupation number:      0.00000000

  Overall HOMO-LUMO gap:      4.35580622 eV.

  Checking to see if s.c.f. parameters should be adjusted.

  Total energy components:
  | Sum of eigenvalues            :        -181.69759596 Ha       -4944.24314643 eV
  | XC energy correction          :         -42.47535904 Ha       -1155.81332675 eV
  | XC potential correction       :          54.61113351 Ha        1486.04455181 eV
  | Free-atom electrostatic energy:        -146.86359206 Ha       -3996.36167267 eV
  | Hartree energy correction     :          -7.07540951 Ha        -192.53168859 eV
  | vdW energy correction         :           0.00000000 Ha           0.00000000 eV
  | Entropy correction            :           0.00000000 Ha           0.00000000 eV
  | ---------------------------
  | Total energy                  :        -323.50082307 Ha       -8802.90528262 eV
  | Total energy, T -> 0          :        -323.50082307 Ha       -8802.90528262 eV  <-- do not rely on this value for anything but (periodic) metals
  | Electronic free energy        :        -323.50082307 Ha       -8802.90528262 eV

  Derived energy quantities:
  | Kinetic energy                :         323.60495406 Ha        8805.73883096 eV
  | Electrostatic energy          :        -604.63041808 Ha      -16452.83078683 eV
  | Energy correction for multipole
  | error in Hartree potential    :           0.02693866 Ha           0.73303818 eV
  | Sum of eigenvalues per atom                           :        -380.32639588 eV
  | Total energy (T->0) per atom                          :        -677.14656020 eV  <-- do not rely on this value for anything but (periodic) metals
  | Electronic free energy per atom                       :        -677.14656020 eV

  Self-consistency convergence accuracy:
  | Change of charge density      :  0.3657E+00
  | Change of sum of eigenvalues  :  0.9933E+02 eV
  | Change of total energy        :  0.2152E+01 eV

  End self-consistency iteration #     2       :  max(cpu_time)    wall_clock(cpu1)
  | Time for this iteration                    :        1.172 s           1.173 s
  | Charge density update                      :        0.382 s           0.383 s
  | Density mixing                             :        0.007 s           0.006 s
  | Hartree multipole update                   :        0.009 s           0.009 s
  | Hartree multipole summation                :        0.284 s           0.284 s
  | Integration                                :        0.488 s           0.489 s
  | Solution of K.-S. eqns.                    :        0.002 s           0.002 s
  | Total energy evaluation                    :        0.000 s           0.000 s

  Partial memory accounting:
  | Current value for overall tracked memory usage on task 0  :           0.166 MB
  | Peak value for overall tracked memory usage on task 0     :           0.695 MB after allocating gradient_basis_wave
  | Largest tracked array allocation on task 0 so far         :           0.397 MB  when allocating gradient_basis_wave
  Note:  These values currently only include a subset of arrays which are explicitly tracked.
  The "true" memory usage will be greater.
------------------------------------------------------------

------------------------------------------------------------
          Begin self-consistency iteration #    3

  Date     :  20200710, Time     :  151130.780
------------------------------------------------------------
  Evaluating new KS density.
  Integration grid: deviation in total charge (<rho> - N_e) =   3.552714E-14
  Pulay mixing of updated and previous charge densities.

  Evaluating partitioned Hartree potential by multipole expansion.
  | Analytical far-field extrapolation by fixed multipoles:
  | Hartree multipole sum: apparent total charge =  -0.402983E-03
  Summing up the Hartree potential.
  Time summed over all CPUs for potential: real work        0.283 s, elapsed        0.283 s
  | RMS charge density error from multipole expansion :   0.220020E-01

  Integrating Hamiltonian matrix: batch-based integration.
  Time summed over all CPUs for integration: real work        0.490 s, elapsed        0.490 s

  Updating Kohn-Sham eigenvalues and eigenvectors using ELSI and the ELPA eigensolver.
  Finished Cholesky decomposition
  | Time :     0.000 s
  Finished transformation to standard eigenproblem
  | Time :     0.000 s
  Starting LAPACK eigensolver
  Finished solving standard eigenproblem
  | Time :     0.002 s
  Finished back-transformation of eigenvectors
  | Time :     0.000 s

  Obtaining occupation numbers and chemical potential using ELSI.
  | Chemical potential (Fermi level):    -2.31098298eV
  Highest occupied state (VBM) at     -5.70988192 eV
  | Occupation number:      2.00000000

  Lowest unoccupied state (CBM) at    -1.33378802 eV
  | Occupation number:      0.00000000

  Overall HOMO-LUMO gap:      4.37609390 eV.

  Total energy components:
  | Sum of eigenvalues            :        -180.38848766 Ha       -4908.62049705 eV
  | XC energy correction          :         -42.62608111 Ha       -1159.91468269 eV
  | XC potential correction       :          54.80325911 Ha        1491.27255559 eV
  | Free-atom electrostatic energy:        -146.86359206 Ha       -3996.36167267 eV
  | Hartree energy correction     :          -8.41284992 Ha        -228.92529401 eV
  | vdW energy correction         :           0.00000000 Ha           0.00000000 eV
  | Entropy correction            :           0.00000000 Ha           0.00000000 eV
  | ---------------------------
  | Total energy                  :        -323.48775164 Ha       -8802.54959083 eV
  | Total energy, T -> 0          :        -323.48775164 Ha       -8802.54959083 eV  <-- do not rely on this value for anything but (periodic) metals
  | Electronic free energy        :        -323.48775164 Ha       -8802.54959083 eV

  Derived energy quantities:
  | Kinetic energy                :         323.14008036 Ha        8793.08897416 eV
  | Electrostatic energy          :        -604.00175090 Ha      -16435.72388230 eV
  | Energy correction for multipole
  | error in Hartree potential    :           0.03850034 Ha           1.04764749 eV
  | Sum of eigenvalues per atom                           :        -377.58619208 eV
  | Total energy (T->0) per atom                          :        -677.11919929 eV  <-- do not rely on this value for anything but (periodic) metals
  | Electronic free energy per atom                       :        -677.11919929 eV

  Self-consistency convergence accuracy:
  | Change of charge density      :  0.2046E+00
  | Change of sum of eigenvalues  :  0.3562E+02 eV
  | Change of total energy        :  0.3557E+00 eV

  End self-consistency iteration #     3       :  max(cpu_time)    wall_clock(cpu1)
  | Time for this iteration                    :        1.174 s           1.175 s
  | Charge density update                      :        0.382 s           0.382 s
  | Density mixing                             :        0.008 s           0.008 s
  | Hartree multipole update                   :        0.009 s           0.009 s
  | Hartree multipole summation                :        0.284 s           0.284 s
  | Integration                                :        0.490 s           0.489 s
  | Solution of K.-S. eqns.                    :        0.002 s           0.003 s
  | Total energy evaluation                    :        0.000 s           0.000 s

  Partial memory accounting:
  | Current value for overall tracked memory usage on task 0  :           0.166 MB
  | Peak value for overall tracked memory usage on task 0     :           0.695 MB after allocating gradient_basis_wave
  | Largest tracked array allocation on task 0 so far         :           0.397 MB  when allocating gradient_basis_wave
  Note:  These values currently only include a subset of arrays which are explicitly tracked.
  The "true" memory usage will be greater.
------------------------------------------------------------

------------------------------------------------------------
          Begin self-consistency iteration #    4

  Date     :  20200710, Time     :  151131.955
------------------------------------------------------------
  Evaluating new KS density.
  Integration grid: deviation in total charge (<rho> - N_e) =  -2.842171E-14
  Pulay mixing of updated and previous charge densities.

  Evaluating partitioned Hartree potential by multipole expansion.
  | Analytical far-field extrapolation by fixed multipoles:
  | Hartree multipole sum: apparent total charge =  -0.435413E-03
  Summing up the Hartree potential.
  Time summed over all CPUs for potential: real work        0.283 s, elapsed        0.283 s
  | RMS charge density error from multipole expansion :   0.251493E-01

  Integrating Hamiltonian matrix: batch-based integration.
  Time summed over all CPUs for integration: real work        0.490 s, elapsed        0.490 s

  Updating Kohn-Sham eigenvalues and eigenvectors using ELSI and the ELPA eigensolver.
  Finished Cholesky decomposition
  | Time :     0.000 s
  Finished transformation to standard eigenproblem
  | Time :     0.000 s
  Starting LAPACK eigensolver
  Finished solving standard eigenproblem
  | Time :     0.002 s
  Finished back-transformation of eigenvectors
  | Time :     0.000 s

  Obtaining occupation numbers and chemical potential using ELSI.
  | Chemical potential (Fermi level):    -2.21322415eV
  Highest occupied state (VBM) at     -5.52596979 eV
  | Occupation number:      2.00000000

  Lowest unoccupied state (CBM) at    -1.24819078 eV
  | Occupation number:      0.00000000

  Overall HOMO-LUMO gap:      4.27777901 eV.

  Total energy components:
  | Sum of eigenvalues            :        -180.22476197 Ha       -4904.16529446 eV
  | XC energy correction          :         -42.66313627 Ha       -1160.92300491 eV
  | XC potential correction       :          54.85005374 Ha        1492.54590227 eV
  | Free-atom electrostatic energy:        -146.86359206 Ha       -3996.36167267 eV
  | Hartree energy correction     :          -8.58549261 Ha        -233.62314045 eV
  | vdW energy correction         :           0.00000000 Ha           0.00000000 eV
  | Entropy correction            :           0.00000000 Ha           0.00000000 eV
  | ---------------------------
  | Total energy                  :        -323.48692916 Ha       -8802.52721022 eV
  | Total energy, T -> 0          :        -323.48692916 Ha       -8802.52721022 eV  <-- do not rely on this value for anything but (periodic) metals
  | Electronic free energy        :        -323.48692916 Ha       -8802.52721022 eV

  Derived energy quantities:
  | Kinetic energy                :         322.79670009 Ha        8783.74512154 eV
  | Electrostatic energy          :        -603.62049299 Ha      -16425.34932684 eV
  | Energy correction for multipole
  | error in Hartree potential    :           0.04255580 Ha           1.15800221 eV
  | Sum of eigenvalues per atom                           :        -377.24348419 eV
  | Total energy (T->0) per atom                          :        -677.11747771 eV  <-- do not rely on this value for anything but (periodic) metals
  | Electronic free energy per atom                       :        -677.11747771 eV

  Self-consistency convergence accuracy:
  | Change of charge density      :  0.6055E-01
  | Change of sum of eigenvalues  :  0.4455E+01 eV
  | Change of total energy        :  0.2238E-01 eV

  End self-consistency iteration #     4       :  max(cpu_time)    wall_clock(cpu1)
  | Time for this iteration                    :        1.177 s           1.178 s
  | Charge density update                      :        0.383 s           0.383 s
  | Density mixing                             :        0.009 s           0.010 s
  | Hartree multipole update                   :        0.009 s           0.009 s
  | Hartree multipole summation                :        0.284 s           0.284 s
  | Integration                                :        0.490 s           0.490 s
  | Solution of K.-S. eqns.                    :        0.002 s           0.002 s
  | Total energy evaluation                    :        0.000 s           0.000 s

  Partial memory accounting:
  | Current value for overall tracked memory usage on task 0  :           0.166 MB
  | Peak value for overall tracked memory usage on task 0     :           0.696 MB after allocating gradient_basis_wave
  | Largest tracked array allocation on task 0 so far         :           0.397 MB  when allocating gradient_basis_wave
  Note:  These values currently only include a subset of arrays which are explicitly tracked.
  The "true" memory usage will be greater.
------------------------------------------------------------

------------------------------------------------------------
          Begin self-consistency iteration #    5

  Date     :  20200710, Time     :  151133.134
------------------------------------------------------------
  Evaluating new KS density.
  Integration grid: deviation in total charge (<rho> - N_e) =   3.552714E-14
  Pulay mixing of updated and previous charge densities.

  Evaluating partitioned Hartree potential by multipole expansion.
  | Analytical far-field extrapolation by fixed multipoles:
  | Hartree multipole sum: apparent total charge =  -0.428897E-03
  Summing up the Hartree potential.
  Time summed over all CPUs for potential: real work        0.284 s, elapsed        0.284 s
  | RMS charge density error from multipole expansion :   0.249175E-01

  Integrating Hamiltonian matrix: batch-based integration.
  Time summed over all CPUs for integration: real work        0.490 s, elapsed        0.490 s

  Updating Kohn-Sham eigenvalues and eigenvectors using ELSI and the ELPA eigensolver.
  Finished Cholesky decomposition
  | Time :     0.000 s
  Finished transformation to standard eigenproblem
  | Time :     0.000 s
  Starting LAPACK eigensolver
  Finished solving standard eigenproblem
  | Time :     0.002 s
  Finished back-transformation of eigenvectors
  | Time :     0.000 s

  Obtaining occupation numbers and chemical potential using ELSI.
  | Chemical potential (Fermi level):    -2.29547451eV
  Highest occupied state (VBM) at     -5.61722621 eV
  | Occupation number:      2.00000000

  Lowest unoccupied state (CBM) at    -1.34130118 eV
  | Occupation number:      0.00000000

  Overall HOMO-LUMO gap:      4.27592502 eV.

  Total energy components:
  | Sum of eigenvalues            :        -180.44324092 Ha       -4910.11040921 eV
  | XC energy correction          :         -42.63709145 Ha       -1160.21428929 eV
  | XC potential correction       :          54.81624955 Ha        1491.62604344 eV
  | Free-atom electrostatic energy:        -146.86359206 Ha       -3996.36167267 eV
  | Hartree energy correction     :          -8.35895112 Ha        -227.45863293 eV
  | vdW energy correction         :           0.00000000 Ha           0.00000000 eV
  | Entropy correction            :           0.00000000 Ha           0.00000000 eV
  | ---------------------------
  | Total energy                  :        -323.48662600 Ha       -8802.51896066 eV
  | Total energy, T -> 0          :        -323.48662600 Ha       -8802.51896066 eV  <-- do not rely on this value for anything but (periodic) metals
  | Electronic free energy        :        -323.48662600 Ha       -8802.51896066 eV

  Derived energy quantities:
  | Kinetic energy                :         322.67137885 Ha        8780.33495693 eV
  | Electrostatic energy          :        -603.52091340 Ha      -16422.63962830 eV
  | Energy correction for multipole
  | error in Hartree potential    :           0.04191750 Ha           1.14063327 eV
  | Sum of eigenvalues per atom                           :        -377.70080071 eV
  | Total energy (T->0) per atom                          :        -677.11684313 eV  <-- do not rely on this value for anything but (periodic) metals
  | Electronic free energy per atom                       :        -677.11684313 eV

  Self-consistency convergence accuracy:
  | Change of charge density      :  0.2033E-01
  | Change of sum of eigenvalues  : -0.5945E+01 eV
  | Change of total energy        :  0.8250E-02 eV

  End self-consistency iteration #     5       :  max(cpu_time)    wall_clock(cpu1)
  | Time for this iteration                    :        1.180 s           1.181 s
  | Charge density update                      :        0.383 s           0.383 s
  | Density mixing                             :        0.011 s           0.011 s
  | Hartree multipole update                   :        0.009 s           0.009 s
  | Hartree multipole summation                :        0.285 s           0.285 s
  | Integration                                :        0.490 s           0.490 s
  | Solution of K.-S. eqns.                    :        0.002 s           0.002 s
  | Total energy evaluation                    :        0.000 s           0.001 s

  Partial memory accounting:
  | Current value for overall tracked memory usage on task 0  :           0.166 MB
  | Peak value for overall tracked memory usage on task 0     :           0.696 MB after allocating gradient_basis_wave
  | Largest tracked array allocation on task 0 so far         :           0.397 MB  when allocating gradient_basis_wave
  Note:  These values currently only include a subset of arrays which are explicitly tracked.
  The "true" memory usage will be greater.
------------------------------------------------------------

------------------------------------------------------------
          Begin self-consistency iteration #    6

  Date     :  20200710, Time     :  151134.315
------------------------------------------------------------
  Evaluating new KS density.
  Integration grid: deviation in total charge (<rho> - N_e) =  -1.421085E-14
  Pulay mixing of updated and previous charge densities.

  Evaluating partitioned Hartree potential by multipole expansion.
  | Analytical far-field extrapolation by fixed multipoles:
  | Hartree multipole sum: apparent total charge =  -0.433072E-03
  Summing up the Hartree potential.
  Time summed over all CPUs for potential: real work        0.283 s, elapsed        0.283 s
  | RMS charge density error from multipole expansion :   0.253488E-01

  Integrating Hamiltonian matrix: batch-based integration.
  Time summed over all CPUs for integration: real work        0.489 s, elapsed        0.489 s

  Updating Kohn-Sham eigenvalues and eigenvectors using ELSI and the ELPA eigensolver.
  Finished Cholesky decomposition
  | Time :     0.000 s
  Finished transformation to standard eigenproblem
  | Time :     0.000 s
  Starting LAPACK eigensolver
  Finished solving standard eigenproblem
  | Time :     0.002 s
  Finished back-transformation of eigenvectors
  | Time :     0.000 s

  Obtaining occupation numbers and chemical potential using ELSI.
  | Chemical potential (Fermi level):    -2.29099461eV
  Highest occupied state (VBM) at     -5.58057395 eV
  | Occupation number:      2.00000000

  Lowest unoccupied state (CBM) at    -1.34418140 eV
  | Occupation number:      0.00000000

  Overall HOMO-LUMO gap:      4.23639255 eV.

  Total energy components:
  | Sum of eigenvalues            :        -180.42669132 Ha       -4909.66007154 eV
  | XC energy correction          :         -42.63779565 Ha       -1160.23345154 eV
  | XC potential correction       :          54.81714325 Ha        1491.65036206 eV
  | Free-atom electrostatic energy:        -146.86359206 Ha       -3996.36167267 eV
  | Hartree energy correction     :          -8.37565030 Ha        -227.91304085 eV
  | vdW energy correction         :           0.00000000 Ha           0.00000000 eV
  | Entropy correction            :           0.00000000 Ha           0.00000000 eV
  | ---------------------------
  | Total energy                  :        -323.48658608 Ha       -8802.51787453 eV
  | Total energy, T -> 0          :        -323.48658608 Ha       -8802.51787453 eV  <-- do not rely on this value for anything but (periodic) metals
  | Electronic free energy        :        -323.48658608 Ha       -8802.51787453 eV

  Derived energy quantities:
  | Kinetic energy                :         322.60218990 Ha        8778.45222990 eV
  | Electrostatic energy          :        -603.45098034 Ha      -16420.73665290 eV
  | Energy correction for multipole
  | error in Hartree potential    :           0.04235187 Ha           1.15245304 eV
  | Sum of eigenvalues per atom                           :        -377.66615935 eV
  | Total energy (T->0) per atom                          :        -677.11675958 eV  <-- do not rely on this value for anything but (periodic) metals
  | Electronic free energy per atom                       :        -677.11675958 eV

  Self-consistency convergence accuracy:
  | Change of charge density      :  0.1018E-01
  | Change of sum of eigenvalues  :  0.4503E+00 eV
  | Change of total energy        :  0.1086E-02 eV

  End self-consistency iteration #     6       :  max(cpu_time)    wall_clock(cpu1)
  | Time for this iteration                    :        1.176 s           1.178 s
  | Charge density update                      :        0.382 s           0.382 s
  | Density mixing                             :        0.012 s           0.012 s
  | Hartree multipole update                   :        0.009 s           0.009 s
  | Hartree multipole summation                :        0.283 s           0.283 s
  | Integration                                :        0.489 s           0.489 s
  | Solution of K.-S. eqns.                    :        0.002 s           0.002 s
  | Total energy evaluation                    :        0.000 s           0.001 s

  Partial memory accounting:
  | Current value for overall tracked memory usage on task 0  :           0.166 MB
  | Peak value for overall tracked memory usage on task 0     :           0.696 MB after allocating gradient_basis_wave
  | Largest tracked array allocation on task 0 so far         :           0.397 MB  when allocating gradient_basis_wave
  Note:  These values currently only include a subset of arrays which are explicitly tracked.
  The "true" memory usage will be greater.
------------------------------------------------------------

------------------------------------------------------------
          Begin self-consistency iteration #    7

  Date     :  20200710, Time     :  151135.493
------------------------------------------------------------
  Evaluating new KS density.
  Integration grid: deviation in total charge (<rho> - N_e) =   0.000000E+00
  Pulay mixing of updated and previous charge densities.

  Evaluating partitioned Hartree potential by multipole expansion.
  | Analytical far-field extrapolation by fixed multipoles:
  | Hartree multipole sum: apparent total charge =  -0.434124E-03
  Summing up the Hartree potential.
  Time summed over all CPUs for potential: real work        0.285 s, elapsed        0.285 s
  | RMS charge density error from multipole expansion :   0.254737E-01

  Integrating Hamiltonian matrix: batch-based integration.
  Time summed over all CPUs for integration: real work        0.492 s, elapsed        0.492 s

  Updating Kohn-Sham eigenvalues and eigenvectors using ELSI and the ELPA eigensolver.
  Finished Cholesky decomposition
  | Time :     0.000 s
  Finished transformation to standard eigenproblem
  | Time :     0.000 s
  Starting LAPACK eigensolver
  Finished solving standard eigenproblem
  | Time :     0.002 s
  Finished back-transformation of eigenvectors
  | Time :     0.000 s

[...]
  |   Hirshfeld dipole moment :      0.06362986
  |   Hirshfeld second moments:      0.00111698      -0.02663760      -0.01948621
  |                                 -0.02663760      -0.01319402       0.01221884
  |                                 -0.01948621       0.01221884      -0.01834898
  ----------------------------------------------------------------------
  | Atom    12: O
  |   Hirshfeld charge        :     -0.15451120
  |   Free atom volume        :     23.61338643
  |   Hirshfeld volume        :     20.99789824
  |   Hirshfeld dipole vector :      0.03127596       0.00212183       0.03142369
  |   Hirshfeld dipole moment :      0.04438621
  |   Hirshfeld second moments:      0.04882533      -0.01426286      -0.01528763
  |                                 -0.01426286       0.09842253       0.01564713
  |                                 -0.01528763       0.01564713       0.01892920
  ----------------------------------------------------------------------
  | Atom    13: H
  |   Hirshfeld charge        :      0.17943706
  |   Free atom volume        :      9.95071624
  |   Hirshfeld volume        :      6.16865622
  |   Hirshfeld dipole vector :      0.06297802      -0.10792993      -0.00303479
  |   Hirshfeld dipole moment :      0.12499725
  |   Hirshfeld second moments:      0.11798769       0.00266078      -0.00988530
  |                                  0.00266078       0.12578737       0.00257060
  |                                 -0.00988530       0.00257060       0.09811945
  ----------------------------------------------------------------------


  Total energy components:
  | Sum of eigenvalues            :        -180.42408668 Ha       -4909.58919574 eV
  | XC energy correction          :         -42.63469894 Ha       -1160.14918583 eV
  | XC potential correction       :          54.81321565 Ha        1491.54348671 eV
  | Free-atom electrostatic energy:        -146.86359206 Ha       -3996.36167267 eV
  | Hartree energy correction     :          -8.37740173 Ha        -227.96069955 eV
  | vdW energy correction         :          -0.00321947 Ha          -0.08760635 eV
  | Entropy correction            :           0.00000000 Ha           0.00000000 eV
  | ---------------------------
  | Total energy                  :        -323.48978324 Ha       -8802.60487343 eV
  | Total energy, T -> 0          :        -323.48978324 Ha       -8802.60487343 eV  <-- do not rely on this value for anything but (periodic) metals
  | Electronic free energy        :        -323.48978324 Ha       -8802.60487343 eV

  Derived energy quantities:
  | Kinetic energy                :         322.56287712 Ha        8777.38247470 eV
  | Electrostatic energy          :        -603.41474194 Ha      -16419.75055595 eV
  | Energy correction for multipole
  | error in Hartree potential    :           0.04242839 Ha           1.15453513 eV
  | Sum of eigenvalues per atom                           :        -377.66070736 eV
  | Total energy (T->0) per atom                          :        -677.12345180 eV  <-- do not rely on this value for anything but (periodic) metals
  | Electronic free energy per atom                       :        -677.12345180 eV

  atomic forces [eV/Ang]:
  -----------------------
  atom #    1
   Hellmann-Feynman              :  0.473059E+00  0.354170E+00  0.726076E+00
   Ionic forces                  :  0.000000E+00  0.000000E+00  0.000000E+00
   Multipole                     :  0.204281E+00  0.373761E+00 -0.299720E+00
   Pulay + GGA                   : -0.123843E+01 -0.296122E+00 -0.103078E+01
   Van der Waals                 :  0.249226E-02  0.533354E-02 -0.171830E-02
   ----------------------------------------------------------------
   Total forces(   1)            : -0.558600E+00  0.437143E+00 -0.606143E+00
  atom #    2
   Hellmann-Feynman              :  0.427264E+00 -0.728658E-01  0.402852E+00
   Ionic forces                  :  0.000000E+00  0.000000E+00  0.000000E+00
   Multipole                     :  0.152657E+00  0.428339E-01 -0.351497E-01
   Pulay + GGA                   : -0.117873E+00  0.276257E-01  0.176632E-01
   Van der Waals                 :  0.862543E-02 -0.652311E-02 -0.182926E-02
   ----------------------------------------------------------------
   Total forces(   2)            :  0.470673E+00 -0.892934E-02  0.383536E+00
  atom #    3
   Hellmann-Feynman              : -0.112784E+02 -0.468628E+01  0.736339E+00
   Ionic forces                  :  0.000000E+00  0.000000E+00  0.000000E+00
   Multipole                     : -0.103188E+00  0.952125E-01 -0.871788E+00
   Pulay + GGA                   :  0.111681E+02  0.454424E+01  0.100522E+01
   Van der Waals                 :  0.336539E-02 -0.900807E-02 -0.620815E-02
   ----------------------------------------------------------------
   Total forces(   3)            : -0.210065E+00 -0.558405E-01  0.863568E+00
  atom #    4
   Hellmann-Feynman              :  0.272129E+00  0.559925E-01 -0.120311E+00
   Ionic forces                  :  0.000000E+00  0.000000E+00  0.000000E+00
   Multipole                     :  0.874715E-02  0.604797E-01 -0.961197E-01
   Pulay + GGA                   : -0.807032E-01 -0.201583E+00  0.599363E-01
   Van der Waals                 : -0.355385E-02 -0.538251E-02 -0.510082E-02
   ----------------------------------------------------------------
   Total forces(   4)            :  0.196619E+00 -0.904930E-01 -0.161595E+00
  atom #    5
   Hellmann-Feynman              :  0.118216E+00  0.600979E-01 -0.277340E+00
   Ionic forces                  :  0.000000E+00  0.000000E+00  0.000000E+00
   Multipole                     :  0.465234E-01 -0.145152E-01 -0.114009E+00
   Pulay + GGA                   : -0.203121E+00  0.594137E-01  0.113748E+00
   Van der Waals                 : -0.148409E-03  0.498268E-02 -0.380664E-02
   ----------------------------------------------------------------
   Total forces(   5)            : -0.385301E-01  0.109979E+00 -0.281409E+00
  atom #    6
   Hellmann-Feynman              : -0.246260E+00 -0.534309E+00  0.254395E+00
   Ionic forces                  :  0.000000E+00  0.000000E+00  0.000000E+00
   Multipole                     : -0.483761E-01  0.646862E+00  0.256229E+00
   Pulay + GGA                   :  0.428047E+00 -0.553688E+00 -0.481970E+00
   Van der Waals                 : -0.204996E-02  0.443305E-02 -0.314198E-02
   ----------------------------------------------------------------
   Total forces(   6)            :  0.131360E+00 -0.436702E+00  0.255116E-01
  atom #    7
   Hellmann-Feynman              : -0.216909E+00 -0.406548E-01 -0.443632E-01
   Ionic forces                  :  0.000000E+00  0.000000E+00  0.000000E+00
   Multipole                     : -0.120483E+00  0.481321E-01  0.308536E-01
   Pulay + GGA                   :  0.116136E+00 -0.155058E-01 -0.151470E-01
   Van der Waals                 : -0.248680E-02  0.295515E-02  0.593017E-02
   ----------------------------------------------------------------
   Total forces(   7)            : -0.223742E+00 -0.507339E-02 -0.227264E-01
  atom #    8
   Hellmann-Feynman              :  0.666972E-01 -0.459386E-01  0.124692E+00
   Ionic forces                  :  0.000000E+00  0.000000E+00  0.000000E+00
   Multipole                     :  0.166861E-01  0.670556E-01  0.124316E+00
   Pulay + GGA                   : -0.478146E-01 -0.436086E-01 -0.108817E+00
   Van der Waals                 : -0.258481E-02  0.116170E-01  0.938574E-03
   ----------------------------------------------------------------
   Total forces(   8)            :  0.329839E-01 -0.108747E-01  0.141129E+00
  atom #    9
   Hellmann-Feynman              :  0.125208E+00  0.836260E-01 -0.180264E+00
   Ionic forces                  :  0.000000E+00  0.000000E+00  0.000000E+00
   Multipole                     :  0.216675E-01  0.129909E+00 -0.311788E-02
   Pulay + GGA                   : -0.347463E-01 -0.714865E-01  0.742598E-01
   Van der Waals                 : -0.117520E-02  0.611562E-02  0.771362E-02
   ----------------------------------------------------------------
   Total forces(   9)            :  0.110954E+00  0.148164E+00 -0.101408E+00
  atom #   10
   Hellmann-Feynman              :  0.250457E+01  0.543456E+01  0.978875E+00
   Ionic forces                  :  0.000000E+00  0.000000E+00  0.000000E+00
   Multipole                     : -0.486693E-01 -0.211948E+00  0.340199E+00
   Pulay + GGA                   : -0.185756E+01 -0.272880E+01 -0.711596E-01
   Van der Waals                 :  0.981469E-03 -0.115297E-01  0.282151E-02
   ----------------------------------------------------------------
   Total forces(  10)            :  0.599330E+00  0.248229E+01  0.125074E+01
  atom #   11
   Hellmann-Feynman              :  0.413730E+01 -0.214813E+01  0.140605E+02
   Ionic forces                  :  0.000000E+00  0.000000E+00  0.000000E+00
   Multipole                     :  0.948779E-01 -0.706278E+00  0.779641E+00
   Pulay + GGA                   : -0.295734E+01  0.337946E+01 -0.135460E+02
   Van der Waals                 : -0.297846E-02 -0.116381E-01  0.267774E-02
   ----------------------------------------------------------------
   Total forces(  11)            :  0.127185E+01  0.513412E+00  0.129684E+01
  atom #   12
   Hellmann-Feynman              : -0.115147E+02  0.754421E+00 -0.116072E+02
   Ionic forces                  :  0.000000E+00  0.000000E+00  0.000000E+00
   Multipole                     : -0.100119E+01 -0.967495E+00 -0.464892E+00
   Pulay + GGA                   :  0.116042E+02 -0.184969E+01  0.908511E+01
   Van der Waals                 : -0.717329E-03  0.575919E-02  0.537244E-02
   ----------------------------------------------------------------
   Total forces(  12)            : -0.912414E+00 -0.205701E+01 -0.298158E+01
  atom #   13
   Hellmann-Feynman              : -0.701255E+00 -0.128282E+01  0.256140E+00
   Ionic forces                  :  0.000000E+00  0.000000E+00  0.000000E+00
   Multipole                     :  0.494415E-01 -0.727781E-01 -0.111256E-01
   Pulay + GGA                   : -0.217094E+00  0.321984E+00 -0.507868E-01
   Van der Waals                 :  0.230280E-03  0.288526E-02 -0.364890E-02
   ----------------------------------------------------------------
   Total forces(  13)            : -0.868677E+00 -0.103073E+01  0.190579E+00

  Timings for VdW correction (Tkatchenko-Scheffler 2009 or later):
  | CPU time:        0.089 s, Wall clock time:        0.089 s.
  Removing unitary transformations (pure translations, rotations) from forces on atoms.
  Atomic forces before filtering:
  | Net force on center of mass :   0.174653E-02 -0.466864E-02 -0.295638E-02 eV/A
  | Net torque on center of mass:  -0.640195E-02  0.313838E-02  0.483055E-02 eV
  Atomic forces after filtering:
  | Net force on center of mass :   0.356812E-15  0.356812E-15  0.289910E-15 eV/A
  | Net torque on center of mass:  -0.221860E-14  0.767069E-16  0.755268E-15 eV

  Energy and forces in a compact form:
  | Total energy uncorrected      :         -0.880260487343318E+04 eV
  | Total energy corrected        :         -0.880260487343318E+04 eV  <-- do not rely on this value for anything but (periodic) metals
  | Electronic free energy        :         -0.880260487343318E+04 eV
  Total atomic forces (unitary forces cleaned) [eV/Ang]:
  |   1         -0.558704057374339E+00          0.437467058544068E+00         -0.605854772366668E+00
  |   2          0.470569153626699E+00         -0.876786550184332E-02          0.383971886106946E+00
  |   3         -0.209977789143248E+00         -0.552424065244549E-01          0.863791551875326E+00
  |   4          0.196894951275549E+00         -0.898417929734063E-01         -0.161238121407085E+00
  |   5         -0.384478064091069E-01          0.110561686248967E+00         -0.281175355692868E+00
  |   6          0.131345741541615E+00         -0.436408431491291E+00          0.259138819896879E-01
  |   7         -0.223754425046311E+00         -0.461937029927544E-02         -0.224677809191294E-01
  |   8          0.328319953778318E-01         -0.107827081003125E-01          0.141582407289202E+00
  |   9          0.111142051127451E+00          0.148476127139835E+00         -0.100828038377987E+00
  |  10          0.598933548311956E+00          0.248256176698186E+01          0.125078626719198E+01
  |  11          0.127126185367069E+01          0.513481001676227E+00          0.129689086422914E+01
  |  12         -0.912845677205201E+00         -0.205652947581445E+01         -0.298174285852236E+01
  |  13         -0.869249539753585E+00         -0.103035558988592E+01          0.190370068603813E+00

  ------------------------------------ 
  Start decomposition of the XC Energy 
  ------------------------------------ 
  X and C from original XC functional choice 
  Hartree-Fock Energy :          0.000000000 Ha              0.000000000 eV
  X Energy            :        -41.034999091 Ha          -1116.619138220 eV
  C Energy            :         -1.599699847 Ha            -43.530047614 eV
  Total XC Energy     :        -42.634698938 Ha          -1160.149185835 eV
  ------------------------------------ 
  LDA X and C from self-consistent density 
  X Energy LDA        :        -37.252503131 Ha          -1013.692186297 eV
  C Energy LDA        :         -3.138282340 Ha            -85.397007419 eV
  ------------------------------------ 
  End decomposition of the XC Energy 
  ------------------------------------ 

------------------------------------------------------------

------------------------------------------------------------------------------
  Final output of selected total energy values:

  The following output summarizes some interesting total energy values
  at the end of a run (AFTER all relaxation, molecular dynamics, etc.).

  | Total energy of the DFT / Hartree-Fock s.c.f. calculation      :          -8802.604873433 eV
  | Final zero-broadening corrected energy (caution - metals only) :          -8802.604873433 eV
  | For reference only, the value of 1 Hartree used in FHI-aims is :             27.211384500 eV

  Before relying on these values, please be sure to understand exactly which
  total energy value is referred to by a given number. Different objects may
  all carry the same name 'total energy'. Definitions:

  Total energy of the DFT / Hartree-Fock s.c.f. calculation:
  | Note that this energy does not include ANY quantities calculated after the
  | s.c.f. cycle, in particular not ANY RPA, MP2, etc. many-body perturbation terms.

  Final zero-broadening corrected energy:
  | For metallic systems only, a broadening of the occupation numbers at the Fermi
  | level can be extrapolated back to zero broadening by an electron-gas inspired
  | formula. For all systems that are not real metals, this value can be
  | meaningless and should be avoided.

------------------------------------------------------------------------------
  Methods described in the following list of references were used in this FHI-aims run.
  If you publish the results, please make sure to cite these reference if they apply.
  FHI-aims is an academic code, and for our developers (often, Ph.D. students
  and postdocs), scientific credit in the community is essential.
  Thank you for helping us!

  For any use of FHI-aims, please cite:

    Volker Blum, Ralf Gehrke, Felix Hanke, Paula Havu, Ville Havu,
    Xinguo Ren, Karsten Reuter, and Matthias Scheffler
    'Ab initio molecular simulations with numeric atom-centered orbitals'
    Computer Physics Communications 180, 2175-2196 (2009)
    http://dx.doi.org/10.1016/j.cpc.2009.06.022


  The scalable eigensolver library ELPA was used in your run.
  ELPA is essential especially for large systems on hundreds or thousands of CPUs.
  For ELPA, please cite:

    Andreas Marek, Volker Blum, Rainer Johanni, Ville Havu, Bruno Lang,
    Thomas Auckenthaler, Alexander Heinecke, Hans-Joachim Bungartz, and Hermann Lederer,
    'The ELPA Library - Scalable Parallel Eigenvalue Solutions
    for Electronic Structure Theory and Computational Science'
    The Journal of Physics: Condensed Matter 26, 213201 (2014).
    http://dx.doi.org/10.1088/0953-8984/26/21/213201


  The ELSI infrastructure was used in your run to solve the Kohn-Sham electronic structure.
  Please check out http://elsi-interchange.org to learn more.
  If scalability is important for your project, please acknowledge ELSI by citing:

    V. W-z. Yu, F. Corsetti, A. Garcia, W. P. Huhn, M. Jacquelin, W. Jia,
    B. Lange, L. Lin, J. Lu, W. Mi, A. Seifitokaldani, A. Vazquez-Mayagoitia,
    C. Yang, H. Yang, and V. Blum
    'ELSI: A unified software interface for Kohn-Sham electronic structure solvers'
    Computer Physics Communications 222, 267-285 (2018).
    http://dx.doi.org/10.1016/j.cpc.2017.09.007


  For the real-space grid partitioning and parallelization used in this calculation, please cite:

    Ville Havu, Volker Blum, Paula Havu, and Matthias Scheffler,
    'Efficient O(N) integration for all-electron electronic structure calculation'
    'using numerically tabulated basis functions'
    Journal of Computational Physics 228, 8367-8379 (2009).
    http://dx.doi.org/10.1016/j.jcp.2009.08.008

  Of course, there are many other important community references, e.g., those cited in the
  above references. Our list is limited to references that describe implementations in the
  FHI-aims code. The reason is purely practical (length of this list) - please credit others as well.

------------------------------------------------------------
          Leaving FHI-aims.
          Date     :  20200710, Time     :  151148.485

          Computational steps:
          | Number of self-consistency cycles          :           15
          | Number of SCF (re)initializations          :            1

          Detailed time accounting                     :  max(cpu_time)    wall_clock(cpu1)
          | Total time                                 :       21.330 s          21.371 s
          | Preparation time                           :        0.146 s           0.147 s
          | Boundary condition initalization           :        0.000 s           0.000 s
          | Grid partitioning                          :        0.111 s           0.111 s
          | Preloading free-atom quantities on grid    :        0.002 s           0.002 s
          | Free-atom superposition energy             :        0.084 s           0.084 s
          | Total time for integrations                :        8.028 s           8.031 s
          | Total time for solution of K.-S. equations :        0.035 s           0.035 s
          | Total time for density & force components  :        6.702 s           6.720 s
          | Total time for mixing                      :        0.198 s           0.202 s
          | Total time for Hartree multipole update    :        0.131 s           0.134 s
          | Total time for Hartree multipole sum       :        5.497 s           5.500 s
          | Total time for total energy evaluation     :        0.002 s           0.005 s
          | Total time for vdW correction              :        0.089 s           0.089 s

          Partial memory accounting:
          | Residual value for overall tracked memory usage across tasks :           0.000 MB (should be 0.000 MB)
          | Peak values for overall tracked memory usage (after allocating hessian_basis_wave):
          |   Minimum:        1.622 MB (on task 1)
          |   Maximum:        1.622 MB (on task 1)
          |   Average:        1.622 MB
          | Largest tracked array allocation (hessian_basis_wave):
          |   Minimum:        0.794 MB (on task 1)
          |   Maximum:        0.794 MB (on task 1)
          |   Average:        0.794 MB
          Note:  These values currently only include a subset of arrays which are explicitly tracked.
          The "true" memory usage will be greater.

          Have a nice day.
------------------------------------------------------------
