  MPI-parallelism will be employed.
------------------------------------------------------------
          Invoking FHI-aims ...
          Version 171221_1
          Compiled on 2019/09/09 at 14:39:39 on host puhti-login2.bullx.

          When using FHI-aims, please cite the following reference:

          Volker Blum, Ralf Gehrke, Felix Hanke, Paula Havu,
          Ville Havu, Xinguo Ren, Karsten Reuter, and Matthias Scheffler,
          'Ab Initio Molecular Simulations with Numeric Atom-Centered Orbitals',
          Computer Physics Communications 180, 2175-2196 (2009)

          For any questions about FHI-aims, please visit the aimsclub website
          with its forums and wiki. Contributions to both the forums and the
          wiki are warmly encouraged - they are for you, and everyone is welcome there.

------------------------------------------------------------



  Date     :  20200710, Time     :  145558.007
  Time zero on CPU 1             :   0.109280000000000E-01  s.
  Internal wall clock time zero  :           363624958.007  s.

  FHI-aims created a unique identifier for this run for later identification
  aims_uuid : 495E8199-DAD2-4C94-ADE3-67CB9E2822D5

  Using        1 parallel tasks.
  Task        0 on host r18c46.bullx reporting.

  Performing system and environment tests:
  | Environment variable OMP_NUM_THREADS correctly set to 1.
  | Stacksize not measured: no C compiler
  | Checking for scalapack...
  | Testing pdtran()...
  | All pdtran() tests passed.

  Obtaining array dimensions for all initial allocations:
  
  -----------------------------------------------------------------------
  Parsing control.in (first pass over file, find array dimensions only).
  The contents of control.in will be repeated verbatim below
  unless switched off by setting 'verbatim_writeout .false.' .
  in the first line of control.in .
  -----------------------------------------------------------------------
  
  #########################################################################################
  #
  #  Volker Blum, FHI 2009 : Test run input file control.in for simple H2O
  #
  #########################################################################################
  #
  #  Physical model
  #
    xc                 pbe
    vdw_correction_hirshfeld
    spin               none
    relativistic       none
    charge             0.
  #
  #  SCF convergence
  #
    occupation_type    gaussian 0.01
    mixer              pulay
      n_max_pulay        10
      charge_mix_param   0.2
    sc_accuracy_rho    1E-5
    sc_accuracy_eev    1E-3
    sc_accuracy_etot   1E-6
    sc_accuracy_forces 1E-4
    sc_iter_limit      100
  #
  #  Relaxation
  #
  #  relax_geometry   bfgs 1.e-3
  #
  ################################################################################
  #
  #  FHI-aims code project
  #  VB, Fritz-Haber Institut, 2009
  #
  #  Suggested "light" defaults for H atom (to be pasted into control.in file)
  #  Be sure to double-check any results obtained with these settings for post-processing,
  #  e.g., with the "tight" defaults and larger basis sets.
  #
  ################################################################################
    species        H
  #     global species definitions
      nucleus             1
      mass                1.00794
  #
      l_hartree           4
  #
      cut_pot             3.5  1.5  1.0
      basis_dep_cutoff    1e-4
  #
      radial_base         24 5.0
      radial_multiplier   1
      angular_grids       specified
        division   0.2421   50
        division   0.3822  110
        division   0.4799  194
        division   0.5341  302
  #      division   0.5626  434
  #      division   0.5922  590
  #      division   0.6542  770
  #      division   0.6868 1202
  #      outer_grid  770
        outer_grid  302
  ################################################################################
  #
  #  Definition of "minimal" basis
  #
  ################################################################################
  #     valence basis states
      valence      1  s   1.
  #     ion occupancy
      ion_occ      1  s   0.5
  ################################################################################
  #
  #  Suggested additional basis functions. For production calculations,
  #  uncomment them one after another (the most important basis functions are
  #  listed first).
  #
  #  Basis constructed for dimers: 0.5 A, 0.7 A, 1.0 A, 1.5 A, 2.5 A
  #
  ################################################################################
  #  "First tier" - improvements: -1014.90 meV to -62.69 meV
       hydro 2 s 2.1
       hydro 2 p 3.5
  #  "Second tier" - improvements: -12.89 meV to -1.83 meV
  #     hydro 1 s 0.85
  #     hydro 2 p 3.7
  #     hydro 2 s 1.2
  #     hydro 3 d 7
  #  "Third tier" - improvements: -0.25 meV to -0.12 meV
  #     hydro 4 f 11.2
  #     hydro 3 p 4.8
  #     hydro 4 d 9
  #     hydro 3 s 3.2
  ################################################################################
  #
  #  FHI-aims code project
  #  VB, Fritz-Haber Institut, 2009
  #
  #  Suggested "light" defaults for C atom (to be pasted into control.in file)
  #  Be sure to double-check any results obtained with these settings for post-processing,
  #  e.g., with the "tight" defaults and larger basis sets.
  #
  ################################################################################
    species        C
  #     global species definitions
      nucleus             6
      mass                12.0107
  #
      l_hartree           4
  #
      cut_pot             3.5  1.5  1.0
      basis_dep_cutoff    1e-4
  #
      radial_base         34 5.0
      radial_multiplier   1
      angular_grids specified
        division   0.3326   50
        division   0.5710  110
        division   0.7727  194
        division   0.8772  302
  #      division   0.9334  434
  #      division   0.9625  590
  #      division   0.9924  770
  #      division   1.0230  974
  #      division   1.4589 1202
  #     outer_grid  974
       outer_grid 302
  ################################################################################
  #
  #  Definition of "minimal" basis
  #
  ################################################################################
  #     valence basis states
      valence      2  s   2.
      valence      2  p   2.
  #     ion occupancy
      ion_occ      2  s   1.
      ion_occ      2  p   1.
  ################################################################################
  #
  #  Suggested additional basis functions. For production calculations,
  #  uncomment them one after another (the most important basis functions are
  #  listed first).
  #
  #  Constructed for dimers: 1.0 A, 1.25 A, 1.5 A, 2.0 A, 3.0 A
  #
  ################################################################################
  #  "First tier" - improvements: -1214.57 meV to -155.61 meV
       hydro 2 p 1.7
       hydro 3 d 6
       hydro 2 s 4.9
  #  "Second tier" - improvements: -67.75 meV to -5.23 meV
  #     hydro 4 f 9.8
  #     hydro 3 p 5.2
  #     hydro 3 s 4.3
  #     hydro 5 g 14.4
  #     hydro 3 d 6.2
  #  "Third tier" - improvements: -2.43 meV to -0.60 meV
  #     hydro 2 p 5.6
  #     hydro 2 s 1.4
  #     hydro 3 d 4.9
  #     hydro 4 f 11.2
  #  "Fourth tier" - improvements: -0.39 meV to -0.18 meV
  #     hydro 2 p 2.1
  #     hydro 5 g 16.4
  #     hydro 4 d 13.2
  #     hydro 3 s 13.6
  #     hydro 4 f 17.6
  #  Further basis functions - improvements: -0.08 meV and below
  #     hydro 3 s 2
  #     hydro 3 p 6
  #     hydro 4 d 20
  ################################################################################
  #
  #  FHI-aims code project
  #  VB, Fritz-Haber Institut, 2009
  #
  #  Suggested "light" defaults for N atom (to be pasted into control.in file)
  #  Be sure to double-check any results obtained with these settings for post-processing,
  #  e.g., with the "tight" defaults and larger basis sets.
  #
  ################################################################################
    species        N
  #     global species definitions
      nucleus             7
      mass                14.0067
  #
      l_hartree           4
  #
      cut_pot             3.5  1.5  1.0
      basis_dep_cutoff    1e-4
  #
      radial_base         35 5.0
      radial_multiplier   1
      angular_grids       specified
        division   0.2599   50
        division   0.4601  110
        division   0.5885  194
        division   0.6503  302
  #      division   0.6939  434
  #      division   0.7396  590
  #      division   0.7632  770
  #      division   0.8122  974
  #      division   1.1604 1202
  #      outer_grid  974
        outer_grid  302
  ################################################################################
  #
  #  Definition of "minimal" basis
  #
  ################################################################################
  #     valence basis states
      valence      2  s   2.
      valence      2  p   3.
  #     ion occupancy
      ion_occ      2  s   1.
      ion_occ      2  p   2.
  ################################################################################
  #
  #  Suggested additional basis functions. For production calculations,
  #  uncomment them one after another (the most important basis functions are
  #  listed first).
  #
  #  Constructed for dimers: 1.0 A, 1.1 A, 1.5 A, 2.0 A, 3.0 A
  #
  ################################################################################
  #  "First tier" - improvements: -1193.42 meV to -220.60 meV
       hydro 2 p 1.8
       hydro 3 d 6.8
       hydro 3 s 5.8
  #  "Second tier" - improvements: -80.21 meV to -6.86 meV
  #     hydro 4 f 10.8
  #     hydro 3 p 5.8
  #     hydro 1 s 0.8
  #     hydro 5 g 16
  #     hydro 3 d 4.9
  #  "Third tier" - improvements: -4.29 meV to -0.53 meV
  #     hydro 3 s 16
  #     ionic 2 p auto
  #     hydro 3 d 6.6
  #     hydro 4 f 11.6
  #  "Fourth tier" - improvements: -0.75 meV to -0.25 meV
  #     hydro 2 p 4.5
  #     hydro 2 s 2.4
  #     hydro 5 g 14.4
  #     hydro 4 d 14.4
  #     hydro 4 f 16.8
  # Further basis functions - -0.21 meV and below
  #     hydro 3 p 14.8
  #     hydro 3 s 4.4
  #     hydro 3 d 19.6
  #     hydro 5 g 12.8
  ################################################################################
  #
  #  FHI-aims code project
  #  VB, Fritz-Haber Institut, 2009
  #
  #  Suggested "light" defaults for O atom (to be pasted into control.in file)
  #  Be sure to double-check any results obtained with these settings for post-processing,
  #  e.g., with the "tight" defaults and larger basis sets.
  #
  ################################################################################
    species        O
  #     global species definitions
      nucleus             8
      mass                15.9994
  #
      l_hartree           4
  #
      cut_pot             3.5  1.5  1.0
      basis_dep_cutoff    1e-4
  #
      radial_base         36 5.0
      radial_multiplier   1
       angular_grids specified
        division   0.2659   50
        division   0.4451  110
        division   0.6052  194
        division   0.7543  302
  #      division   0.8014  434
  #      division   0.8507  590
  #      division   0.8762  770
  #      division   0.9023  974
  #      division   1.2339 1202
  #      outer_grid 974
        outer_grid 302
  ################################################################################
  #
  #  Definition of "minimal" basis
  #
  ################################################################################
  #     valence basis states
      valence      2  s   2.
      valence      2  p   4.
  #     ion occupancy
      ion_occ      2  s   1.
      ion_occ      2  p   3.
  ################################################################################
  #
  #  Suggested additional basis functions. For production calculations,
  #  uncomment them one after another (the most important basis functions are
  #  listed first).
  #
  #  Constructed for dimers: 1.0 A, 1.208 A, 1.5 A, 2.0 A, 3.0 A
  #
  ################################################################################
  #  "First tier" - improvements: -699.05 meV to -159.38 meV
       hydro 2 p 1.8
       hydro 3 d 7.6
       hydro 3 s 6.4
  #  "Second tier" - improvements: -49.91 meV to -5.39 meV
  #     hydro 4 f 11.6
  #     hydro 3 p 6.2
  #     hydro 3 d 5.6
  #     hydro 5 g 17.6
  #     hydro 1 s 0.75
  #  "Third tier" - improvements: -2.83 meV to -0.50 meV
  #     ionic 2 p auto
  #     hydro 4 f 10.8
  #     hydro 4 d 4.7
  #     hydro 2 s 6.8
  #  "Fourth tier" - improvements: -0.40 meV to -0.12 meV
  #     hydro 3 p 5
  #     hydro 3 s 3.3
  #     hydro 5 g 15.6
  #     hydro 4 f 17.6
  #     hydro 4 d 14
  # Further basis functions - -0.08 meV and below
  #     hydro 3 s 2.1
  #     hydro 4 d 11.6
  #     hydro 3 p 16
  #     hydro 2 s 17.2
  
  -----------------------------------------------------------------------
  Completed first pass over input file control.in .
  -----------------------------------------------------------------------
  
  
  -----------------------------------------------------------------------
  Parsing geometry.in (first pass over file, find array dimensions only).
  The contents of geometry.in will be repeated verbatim below
  unless switched off by setting 'verbatim_writeout .false.' .
  in the first line of geometry.in .
  -----------------------------------------------------------------------
  
  atom  0.00000 0.00000 0.00000 C
  atom  1.09300 0.00000 0.00000 H
  atom  -0.47961 0.00000 -1.41207 N
  atom  -0.07621 0.80396 -1.89452 H
  atom  -0.18097 -0.86456 -1.85870 H
  atom  -0.49584 1.26211 0.72868 C
  atom  -1.58789 1.28919 0.74431 H
  atom  -0.13407 1.27425 1.75947 H
  atom  -0.13407 2.16087 0.22380 H
  atom  -0.39425 -1.28861 0.74398 C
  atom  -0.10189 -1.56493 1.88303 O
  atom  -1.10210 -2.13717 0.06896 O
  atom  -0.60078 -2.94206 0.28299 H
  
  -----------------------------------------------------------------------
  Completed first pass over input file geometry.in .
  -----------------------------------------------------------------------
  

  Basic array size parameters:
  | Number of species                 :        4
  | Number of atoms                   :       13
  | Max. basis fn. angular momentum   :        2
  | Max. atomic/ionic basis occupied n:        2
  | Max. number of basis fn. types    :        2
  | Max. radial fns per species/type  :        3
  | Max. logarithmic grid size        :     1301
  | Max. radial integration grid size :       36
  | Max. angular integration grid size:      302
  | Max. angular grid division number :        8
  | Radial grid for Hartree potential :     1301
  | Number of spin channels           :        1

------------------------------------------------------------
          Reading file control.in.
------------------------------------------------------------
  XC: Using PBE gradient-corrected functionals.
  Spin treatment: No spin polarisation.
  Non-relativistic treatment of kinetic energy.
  Charge =   0.000000E+00: Neutral system requested explicitly.
  Occupation type: Gaussian broadening, width =   0.100000E-01 eV.
  Using pulay charge density mixing.
  Pulay mixing - number of memorized iterations:   10
  Charge density mixing - mixing parameter:     0.2000
  Convergence accuracy of self-consistent charge density:  0.1000E-04
  Convergence accuracy of sum of eigenvalues:  0.1000E-02
  Convergence accuracy of total energy:  0.1000E-05
  Convergence accuracy of forces:  0.1000E-03
  Maximum number of s.-c. iterations  :   100
 
  Reading configuration options for species H                   .
  | Found nuclear charge :   1.0000
  | Found atomic mass :    1.00794000000000      amu
  | Found l_max for Hartree potential  :   4
  | Found cutoff potl. onset [A], width [A], scale factor :    3.50000    1.50000    1.00000
  | Threshold for basis-dependent cutoff potential is   0.100000E-03
  | Found data for basic radial integration grid :    24 points, outermost radius =    5.000 A
  | Found multiplier for basic radial grid :   1
  | Found angular grid specification: user-specified.
  | Specified grid contains     5 separate shells.
  | Check grid settings after all constraints further below.
  | Found free-atom valence shell :  1 s   1.000
  | No ionic wave fns used. Skipping ion_occ.
  | Found hydrogenic basis function :  2 s   2.100
  | Found hydrogenic basis function :  2 p   3.500
  Species H                   : Missing cutoff potential type.
  Defaulting to exp(1/x)/(1-x)^2 type cutoff potential.
  Species H : No 'logarithmic' tag. Using default grid for free atom:
  | Default logarithmic grid data [bohr] : 0.1000E-03 0.1000E+03 0.1012E+01
  Species H : On-site basis accuracy parameter (for Gram-Schmidt orthonormalisation) not specified.
  Using default value basis_acc =  0.1000000E-03.
  Species H                   : Using default innermost maximum threshold i_radial=  2 for radial functions.
  Species H                   : Default cutoff onset for free atom density etc. : 0.35000000E+01 AA.
  Species H                   : Basic radial grid will be enhanced according to radial_multiplier =   1, to contain    24 grid points.
 
  Reading configuration options for species C                   .
  | Found nuclear charge :   6.0000
  | Found atomic mass :    12.0107000000000      amu
  | Found l_max for Hartree potential  :   4
  | Found cutoff potl. onset [A], width [A], scale factor :    3.50000    1.50000    1.00000
  | Threshold for basis-dependent cutoff potential is   0.100000E-03
  | Found data for basic radial integration grid :    34 points, outermost radius =    5.000 A
  | Found multiplier for basic radial grid :   1
  | Found angular grid specification: user-specified.
  | Specified grid contains     5 separate shells.
  | Check grid settings after all constraints further below.
  | Found free-atom valence shell :  2 s   2.000
  | Found free-atom valence shell :  2 p   2.000
  | No ionic wave fns used. Skipping ion_occ.
  | No ionic wave fns used. Skipping ion_occ.
  | Found hydrogenic basis function :  2 p   1.700
  | Found hydrogenic basis function :  3 d   6.000
  | Found hydrogenic basis function :  2 s   4.900
  Species C                   : Missing cutoff potential type.
  Defaulting to exp(1/x)/(1-x)^2 type cutoff potential.
  Species C : No 'logarithmic' tag. Using default grid for free atom:
  | Default logarithmic grid data [bohr] : 0.1000E-03 0.1000E+03 0.1012E+01
  Species C : On-site basis accuracy parameter (for Gram-Schmidt orthonormalisation) not specified.
  Using default value basis_acc =  0.1000000E-03.
  Species C                   : Using default innermost maximum threshold i_radial=  2 for radial functions.
  Species C                   : Default cutoff onset for free atom density etc. : 0.35000000E+01 AA.
  Species C                   : Basic radial grid will be enhanced according to radial_multiplier =   1, to contain    34 grid points.
 
  Reading configuration options for species N                   .
  | Found nuclear charge :   7.0000
  | Found atomic mass :    14.0067000000000      amu
  | Found l_max for Hartree potential  :   4
  | Found cutoff potl. onset [A], width [A], scale factor :    3.50000    1.50000    1.00000
  | Threshold for basis-dependent cutoff potential is   0.100000E-03
  | Found data for basic radial integration grid :    35 points, outermost radius =    5.000 A
  | Found multiplier for basic radial grid :   1
  | Found angular grid specification: user-specified.
  | Specified grid contains     5 separate shells.
  | Check grid settings after all constraints further below.
  | Found free-atom valence shell :  2 s   2.000
  | Found free-atom valence shell :  2 p   3.000
  | No ionic wave fns used. Skipping ion_occ.
  | No ionic wave fns used. Skipping ion_occ.
  | Found hydrogenic basis function :  2 p   1.800
  | Found hydrogenic basis function :  3 d   6.800
  | Found hydrogenic basis function :  3 s   5.800
  Species N                   : Missing cutoff potential type.
  Defaulting to exp(1/x)/(1-x)^2 type cutoff potential.
  Species N : No 'logarithmic' tag. Using default grid for free atom:
  | Default logarithmic grid data [bohr] : 0.1000E-03 0.1000E+03 0.1012E+01
  Species N : On-site basis accuracy parameter (for Gram-Schmidt orthonormalisation) not specified.
  Using default value basis_acc =  0.1000000E-03.
  Species N                   : Using default innermost maximum threshold i_radial=  2 for radial functions.
  Species N                   : Default cutoff onset for free atom density etc. : 0.35000000E+01 AA.
  Species N                   : Basic radial grid will be enhanced according to radial_multiplier =   1, to contain    35 grid points.
 
  Reading configuration options for species O                   .
  | Found nuclear charge :   8.0000
  | Found atomic mass :    15.9994000000000      amu
  | Found l_max for Hartree potential  :   4
  | Found cutoff potl. onset [A], width [A], scale factor :    3.50000    1.50000    1.00000
  | Threshold for basis-dependent cutoff potential is   0.100000E-03
  | Found data for basic radial integration grid :    36 points, outermost radius =    5.000 A
  | Found multiplier for basic radial grid :   1
  | Found angular grid specification: user-specified.
  | Specified grid contains     5 separate shells.
  | Check grid settings after all constraints further below.
  | Found free-atom valence shell :  2 s   2.000
  | Found free-atom valence shell :  2 p   4.000
  | No ionic wave fns used. Skipping ion_occ.
  | No ionic wave fns used. Skipping ion_occ.
  | Found hydrogenic basis function :  2 p   1.800
  | Found hydrogenic basis function :  3 d   7.600
  | Found hydrogenic basis function :  3 s   6.400
  Species O                   : Missing cutoff potential type.
  Defaulting to exp(1/x)/(1-x)^2 type cutoff potential.
  Species O : No 'logarithmic' tag. Using default grid for free atom:
  | Default logarithmic grid data [bohr] : 0.1000E-03 0.1000E+03 0.1012E+01
  Species O : On-site basis accuracy parameter (for Gram-Schmidt orthonormalisation) not specified.
  Using default value basis_acc =  0.1000000E-03.
  Species O                   : Using default innermost maximum threshold i_radial=  2 for radial functions.
  Species O                   : Default cutoff onset for free atom density etc. : 0.35000000E+01 AA.
  Species O                   : Basic radial grid will be enhanced according to radial_multiplier =   1, to contain    36 grid points.
 
  Finished reading input file 'control.in'. Consistency checks are next.
 
  MPI_IN_PLACE appears to work with this MPI implementation.
  | Keeping use_mpi_in_place .true. (see manual).
  Target number of points in a grid batch is not set. Defaulting to  100
  Method for grid partitioning is not set. Defaulting to parallel hash+maxmin partitioning.
  Batch size limit is not set. Defaulting to    200
  By default, will store active basis functions for each batch.
  If in need of memory, prune_basis_once .false. can be used to disable this option.
  communication_type for Hartree potential was not specified.
  Defaulting to calc_hartree .
  Pulay mixer: Number of initial linear mixing iterations not set.
  Defaulting to    0 iterations.
  Work space size for distributed Hartree potential not set.
  Defaulting to   0.200000E+03 MB.
  Algorithm-dependent basis array size parameters:
  | n_max_pulay                         :       10
  Presetting      1001 iterations before the initial mixing cycle
  is restarted anyway using the sc_init_iter criterion / keyword.
  Presetting a factor      1.000 between actual scf density residual
  and density convergence criterion sc_accuracy_rho below which sc_init_iter
  takes no effect.
  Geometry relaxation not requested: no relaxation will be performed.
  Handling of forces: Unphysical translation and rotation will be removed from forces.
  No accuracy limit for integral partition fn. given. Defaulting to  0.1000E-14.
  No threshold value for u(r) in integrations given. Defaulting to  0.1000E-05.
  No accuracy for occupation numbers given. Defaulting to  0.1000E-12.
  No threshold value for occupation numbers given. Defaulting to  0.0000E+00.
  No accuracy for fermi level given. Defaulting to  0.1000E-19.
  Maximum # of iterations to find E_F not set. Defaulting to  200.
  Preferred method for the eigenvalue solver ('KS_method') not specified in 'control.in'.
  Defaulting to serial version, 'lapack_fast'.
  Will not use alltoall communication since running on < 1024 CPUs.
  Threshold for basis singularities not set.
  Default threshold for basis singularities:  0.1000E-04
  partition_type (choice of integration weights) for integrals was not specified.
  | Using a version of the partition function of Stratmann and coworkers ('stratmann_smoother').
  | At each grid point, the set of atoms used to build the partition table is smoothly restricted to
  | only those atoms whose free-atom density would be non-zero at that grid point.
  Partitioning for Hartree potential was not defined. Using partition_type for integrals.
  | Adjusted default value of keyword multip_moments_threshold to:       0.10000000E-11
  | This value may affect high angular momentum components of the Hartree potential in periodic systems.
  No q(lm)/r^(l+1) cutoff set for long-range Hartree potential.
  | Using default value of  0.100000E-09 .
  | Verify using the multipole_threshold keyword.
  Defaulting to new monopole extrapolation.
  Density update method: automatic selection selected.
------------------------------------------------------------


------------------------------------------------------------
          Reading geometry description geometry.in.
------------------------------------------------------------
  Input structure read successfully.
  The structure contains       13 atoms,  and a total of         48.000 electrons.

  Input geometry:
  | No unit cell requested.
  | Atomic structure:
  |       Atom                x [A]            y [A]            z [A]
  |    1: Species C             0.00000000        0.00000000        0.00000000
  |    2: Species H             1.09300000        0.00000000        0.00000000
  |    3: Species N            -0.47961000        0.00000000       -1.41207000
  |    4: Species H            -0.07621000        0.80396000       -1.89452000
  |    5: Species H            -0.18097000       -0.86456000       -1.85870000
  |    6: Species C            -0.49584000        1.26211000        0.72868000
  |    7: Species H            -1.58789000        1.28919000        0.74431000
  |    8: Species H            -0.13407000        1.27425000        1.75947000
  |    9: Species H            -0.13407000        2.16087000        0.22380000
  |   10: Species C            -0.39425000       -1.28861000        0.74398000
  |   11: Species O            -0.10189000       -1.56493000        1.88303000
  |   12: Species O            -1.10210000       -2.13717000        0.06896000
  |   13: Species H            -0.60078000       -2.94206000        0.28299000
  |

  | The smallest distance between any two atoms is         0.97210004 AA.
  |
  | The first atom of this pair is atom number                     12 .
  | The second atom of this pair is atom number                    13 .

  Number of empty states per atom not set in control.in - providing a guess from actual geometry.
  | Total number of empty states used during s.c.f. cycle:       29
  If you use a very high smearing, use empty_states (per atom!) in control.in to increase this value.

  Structure-dependent array size parameters: 
  | Maximum number of distinct radial functions  :       21
  | Maximum number of basis functions            :      119
  | Number of Kohn-Sham states (occupied + empty):       53
------------------------------------------------------------

------------------------------------------------------------
          Preparing all fixed parts of the calculation.
------------------------------------------------------------
  Determining machine precision:
    2.225073858507201E-308
  Setting up grids for atomic and cluster calculations.

  Creating wave function, potential, and density for free atoms.

  Species: H

  List of occupied orbitals and eigenvalues:
    n    l              occ      energy [Ha]    energy [eV]
    1    0           1.0000        -0.237589        -6.4651


  Species: C

  List of occupied orbitals and eigenvalues:
    n    l              occ      energy [Ha]    energy [eV]
    1    0           2.0000       -10.038835      -273.1706
    2    0           2.0000        -0.502696       -13.6791
    2    1           2.0000        -0.191971        -5.2238


  Species: N

  List of occupied orbitals and eigenvalues:
    n    l              occ      energy [Ha]    energy [eV]
    1    0           2.0000       -14.128000      -384.4424
    2    0           2.0000        -0.681077       -18.5330
    2    1           3.0000        -0.259788        -7.0692


  Species: O

  List of occupied orbitals and eigenvalues:
    n    l              occ      energy [Ha]    energy [eV]
    1    0           2.0000       -18.898188      -514.2459
    2    0           2.0000        -0.878505       -23.9053
    2    1           4.0000        -0.331779        -9.0282

  Creating fixed part of basis set: Ionic, confined, hydrogenic.
 
  H                    hydrogenic:
 
  List of hydrogenic basis orbitals: 
    n    l      effective z      eigenvalue [eV]  inner max. [A]     outer max. [A]     outer radius [A]   
    2    0         2.100000       -14.9728           0.193243           1.317208           4.583499
    2    1         3.500000       -41.6669           0.602369           0.602369           3.723403
 
 
  C                    hydrogenic:
 
  List of hydrogenic basis orbitals: 
    n    l      effective z      eigenvalue [eV]  inner max. [A]     outer max. [A]     outer radius [A]   
    2    1         1.700000        -9.7616           1.230570           1.230570           4.607917
    3    2         6.000000       -54.4224           0.792453           0.792453           3.883070
    2    0         4.900000       -81.6679           0.082559           0.562749           3.078220
 
 
  N                    hydrogenic:
 
  List of hydrogenic basis orbitals: 
    n    l      effective z      eigenvalue [eV]  inner max. [A]     outer max. [A]     outer radius [A]   
    2    1         1.800000       -10.9749           1.177451           1.177451           4.573712
    3    2         6.800000       -69.9026           0.704619           0.704619           3.538137
    3    0         5.800000       -50.8545           0.067388           1.191934           4.250239
 
 
  O                    hydrogenic:
 
  List of hydrogenic basis orbitals: 
    n    l      effective z      eigenvalue [eV]  inner max. [A]     outer max. [A]     outer radius [A]   
    2    1         1.800000       -10.9749           1.164242           1.164242           4.578029
    3    2         7.600000       -87.3180           0.624125           0.624125           3.251020
    3    0         6.400000       -61.9207           0.061167           1.081902           4.001998
 

  Adding cutoff potential to free-atom effective potential.
  Creating atomic-like basis functions for current effective potential.

  Species H                   :

  List of atomic basis orbitals and eigenvalues:
    n    l      energy [Ha]    energy [eV]    outer radius [A]
    1    0        -0.237589        -6.4651       4.527807


  Species C                   :

  List of atomic basis orbitals and eigenvalues:
    n    l      energy [Ha]    energy [eV]    outer radius [A]
    1    0       -10.038835      -273.1706       1.934409
    2    0        -0.502696       -13.6791       4.496620
    2    1        -0.191971        -5.2238       4.551928


  Species N                   :

  List of atomic basis orbitals and eigenvalues:
    n    l      energy [Ha]    energy [eV]    outer radius [A]
    1    0       -14.128000      -384.4424       1.637919
    2    0        -0.681077       -18.5330       4.463241
    2    1        -0.259788        -7.0692       4.518138


  Species O                   :

  List of atomic basis orbitals and eigenvalues:
    n    l      energy [Ha]    energy [eV]    outer radius [A]
    1    0       -18.898188      -514.2459       1.415765
    2    0        -0.878505       -23.9053       4.413171
    2    1        -0.331779        -9.0282       4.522403

  Assembling full basis from fixed parts.
  | Species H :   atomic orbital   1 s accepted.
  | Species H :    hydro orbital   2 s accepted.
  | Species H :    hydro orbital   2 p accepted.
  | Species C :   atomic orbital   1 s accepted.
  | Species C :    hydro orbital   2 s accepted.
  | Species C :   atomic orbital   2 s accepted.
  | Species C :   atomic orbital   2 p accepted.
  | Species C :    hydro orbital   2 p accepted.
  | Species C :    hydro orbital   3 d accepted.
  | Species N :   atomic orbital   1 s accepted.
  | Species N :    hydro orbital   3 s accepted.
  | Species N :   atomic orbital   2 s accepted.
  | Species N :   atomic orbital   2 p accepted.
  | Species N :    hydro orbital   2 p accepted.
  | Species N :    hydro orbital   3 d accepted.
  | Species O :   atomic orbital   1 s accepted.
  | Species O :    hydro orbital   3 s accepted.
  | Species O :   atomic orbital   2 s accepted.
  | Species O :   atomic orbital   2 p accepted.
  | Species O :    hydro orbital   2 p accepted.
  | Species O :    hydro orbital   3 d accepted.
 
  Basis size parameters after reduction:
  | Total number of radial functions:       21
  | Total number of basis functions :      119
 
  Per-task memory consumption for arrays in subroutine allocate_ext:
  |           5.250512MB.
  Testing on-site integration grid accuracy.
  |  Species  Function  <phi|h_atom|phi> (log., in eV)  <phi|h_atom|phi> (rad., in eV)
           1        1                 -6.4663192853                 -6.4651273558
           1        2                 13.7111246313                 13.7170609718
           1        3                 25.2673269279                 25.2674696378
           2        4               -273.1705927641               -273.1705631568
           2        5                -10.7109323383                -10.7107120029
           2        6                 17.4381822266                 17.4352413244
           2        7                 -5.2255326521                 -5.2270484734
           2        8                  8.6835629259                  8.6603288385
           2        9                 27.4952418996                 27.4953360207
           3       10               -384.4424306495               -384.4423701208
           3       11                 12.5842251816                 12.5842222903
           3       12                -15.7264628251                -15.7264433455
           3       13                 -7.0696854293                 -7.0701769954
           3       14                  8.8090390882                  8.7901077751
           3       15                 35.9586762123                 35.9588528632
           4       16               -514.2458688638               -514.2457643834
           4       17                 15.1795651126                 15.1795290741
           4       18                -21.5359799773                -21.5360846186
           4       19                 -9.0283069236                 -9.0284644067
           4       20                  8.3027758564                  8.2834874195
           4       21                 45.8339351984                 45.8338762259

  Preparing densities etc. for the partition functions (integrals / Hartree potential).

  Preparations completed.
  max(cpu_time)          :      0.146 s.
  Wall clock time (cpu1) :      0.147 s.
------------------------------------------------------------

------------------------------------------------------------
          Begin self-consistency loop: Initialization.

          Date     :  20200710, Time     :  145558.167
------------------------------------------------------------

  Initializing index lists of integration centers etc. from given atomic structure:
  | Number of centers in hartree potential         :        13
  | Number of centers in hartree multipole         :        13
  | Number of centers in electron density summation:        13
  | Number of centers in basis integrals           :        13
  | Number of centers in integrals                 :        13
  | Number of centers in hamiltonian               :        13
  Partitioning the integration grid into batches with parallel hashing+maxmin method.
  | Number of batches:      955
  | Maximal batch size:     139
  | Minimal batch size:      66
  | Average batch size:      72.928
  | Standard deviation of batch sizes:      17.606

  Integration load balanced across     1 MPI tasks.
  Work distribution over tasks is as follows:
  Task     0 has      69646 integration points.
  Initializing partition tables, free-atom densities, potentials, etc. across the integration grid (initialize_grid_storage).
  | initialize_grid_storage: Actual outermost partition radius vs. multipole_radius_free
  | (-- VB: in principle, multipole_radius_free should be larger, hence this output)
  | Species        1: Confinement radius =              4.999999999999999 AA, multipole_radius_free =              5.054417573612229 AA.
  | Species        1: outer_partition_radius set to              5.054417573612229 AA .
  | Species        2: Confinement radius =              4.999999999999999 AA, multipole_radius_free =              5.019602836301480 AA.
  | Species        2: outer_partition_radius set to              5.019602836301480 AA .
  | Species        3: Confinement radius =              4.999999999999999 AA, multipole_radius_free =              5.043624274424571 AA.
  | Species        3: outer_partition_radius set to              5.043624274424571 AA .
  | Species        4: Confinement radius =              4.999999999999999 AA, multipole_radius_free =              5.048384829883283 AA.
  | Species        4: outer_partition_radius set to              5.048384829883283 AA .
  | Original list of interatomic distances with          13 x         13 entries is created.
  | Net number of integration points:    69646
  | of which are non-zero points    :    59595
  Renormalizing the initial density to the exact electron count on the 3D integration grid.
  | Initial density: Formal number of electrons (from input files) :      48.0000000000
  | Integrated number of electrons on 3D grid     :      47.9999166318
  | Charge integration error                      :      -0.0000833682
  | Normalization factor for density and gradient :       1.0000017368
  Obtaining max. number of non-zero basis functions in each batch (get_n_compute_maxes).
  | Maximal number of non-zero basis functions:      119 in task     0
  Selecting the method for density update.
  Loop over occupied states selected for charge density update.
  Allocating        0.050 MB for KS_eigenvector
  Integrating Hamiltonian matrix: batch-based integration.
  Time summed over all CPUs for integration: real work        0.488 s, elapsed        0.488 s
  Integrating overlap matrix.
  Time summed over all CPUs for integration: real work        0.209 s, elapsed        0.209 s

  Updating Kohn-Sham eigenvalues and eigenvectors using ELSI and the ELPA eigensolver.
  Overlap matrix is nonsingular
  | Lowest eigenvalue of overlap  :  0.56E-02
  | Highest eigenvalue of overlap :  0.60E+01
  Finished singularity check of overlap matrix
  | Time :     0.002 s
  Finished Cholesky decomposition
  | Time :     0.000 s
  Finished transformation to standard eigenproblem
  | Time :     0.000 s
  Starting LAPACK eigensolver
  Finished solving standard eigenproblem
  | Time :     0.002 s
  Finished back-transformation of eigenvectors
  | Time :     0.000 s

  Obtaining occupation numbers and chemical potential using ELSI.
  | Chemical potential (Fermi level):    -9.08523695eV
  Writing Kohn-Sham eigenvalues.

  State    Occupation    Eigenvalue [Ha]    Eigenvalue [eV]
      1       2.00000         -19.007710         -517.22610
      2       2.00000         -18.977811         -516.41252
      3       2.00000         -14.245790         -387.64767
      4       2.00000         -10.166666         -276.64905
      5       2.00000         -10.141249         -275.95743
      6       2.00000         -10.131992         -275.70554
      7       2.00000          -1.186308          -32.28108
      8       2.00000          -1.094301          -29.77743
      9       2.00000          -0.991145          -26.97042
     10       2.00000          -0.861159          -23.43332
     11       2.00000          -0.758878          -20.65012
     12       2.00000          -0.680007          -18.50393
     13       2.00000          -0.622623          -16.94244
     14       2.00000          -0.604249          -16.44244
     15       2.00000          -0.581830          -15.83239
     16       2.00000          -0.579677          -15.77380
     17       2.00000          -0.546653          -14.87519
     18       2.00000          -0.534337          -14.54005
     19       2.00000          -0.513660          -13.97740
     20       2.00000          -0.503915          -13.71222
     21       2.00000          -0.468395          -12.74568
     22       2.00000          -0.429853          -11.69689
     23       2.00000          -0.402482          -10.95208
     24       2.00000          -0.385967          -10.50270
     25       0.00000          -0.157137           -4.27592
     26       0.00000          -0.060000           -1.63269
     27       0.00000          -0.028184           -0.76693
     28       0.00000          -0.023786           -0.64726
     29       0.00000           0.005082            0.13828
     30       0.00000           0.013639            0.37113
     31       0.00000           0.014203            0.38648
     32       0.00000           0.029459            0.80162
     33       0.00000           0.049156            1.33761
     34       0.00000           0.055553            1.51168
     35       0.00000           0.079657            2.16758
     36       0.00000           0.132679            3.61039
     37       0.00000           0.155330            4.22674
     38       0.00000           0.200338            5.45148
     39       0.00000           0.212783            5.79012
     40       0.00000           0.222529            6.05533
     41       0.00000           0.251228            6.83626
     42       0.00000           0.278409            7.57589
     43       0.00000           0.292540            7.96042
     44       0.00000           0.296908            8.07928
     45       0.00000           0.336774            9.16409
     46       0.00000           0.364542            9.91971
     47       0.00000           0.383138           10.42572
     48       0.00000           0.423231           11.51671
     49       0.00000           0.443579           12.07040
     50       0.00000           0.457548           12.45051
     51       0.00000           0.470010           12.78961
     52       0.00000           0.548491           14.92519
     53       0.00000           0.584509           15.90530

  Highest occupied state (VBM) at    -10.50270177 eV
  | Occupation number:      2.00000000

  Lowest unoccupied state (CBM) at    -4.27592016 eV
  | Occupation number:      0.00000000

  Overall HOMO-LUMO gap:      6.22678160 eV.
  Calculating total energy contributions from superposition of free atom densities.

  Total energy components:
  | Sum of eigenvalues            :        -188.83331072 Ha       -5138.41582439 eV
  | XC energy correction          :         -41.78381792 Ha       -1136.99553538 eV
  | XC potential correction       :          53.71319025 Ha        1461.61027273 eV
  | Free-atom electrostatic energy:        -146.86201714 Ha       -3996.31881680 eV
  | Hartree energy correction     :           0.00000000 Ha           0.00000000 eV
  | vdW energy correction         :           0.00000000 Ha           0.00000000 eV
  | Entropy correction            :           0.00000000 Ha           0.00000000 eV
  | ---------------------------
  | Total energy                  :        -323.76595553 Ha       -8810.11990384 eV
  | Total energy, T -> 0          :        -323.76595553 Ha       -8810.11990384 eV  <-- do not rely on this value for anything but (periodic) metals
  | Electronic free energy        :        -323.76595553 Ha       -8810.11990384 eV

  Derived energy quantities:
  | Kinetic energy                :         320.48086536 Ha        8720.72805228 eV
  | Electrostatic energy          :        -602.46300297 Ha      -16393.85242073 eV
  | Energy correction for multipole
  | error in Hartree potential    :           0.00000000 Ha           0.00000000 eV
  | Sum of eigenvalues per atom                           :        -395.26275572 eV
  | Total energy (T->0) per atom                          :        -677.70153106 eV  <-- do not rely on this value for anything but (periodic) metals
  | Electronic free energy per atom                       :        -677.70153106 eV
  Initialize hartree_potential_storage
  Max. number of atoms included in rho_multipole:           13

  End scf initialization - timings             :  max(cpu_time)    wall_clock(cpu1)
  | Time for scf. initialization               :        1.138 s           1.145 s
  | Boundary condition initialization          :        0.000 s           0.000 s
  | Integration                                :        0.697 s           0.697 s
  | Solution of K.-S. eqns.                    :        0.004 s           0.004 s
  | Grid partitioning                          :        0.111 s           0.111 s
  | Preloading free-atom quantities on grid    :        0.002 s           0.002 s
  | Free-atom superposition energy             :        0.084 s           0.084 s
  | Total energy evaluation                    :        0.000 s           0.000 s

  Partial memory accounting:
  | Current value for overall tracked memory usage on task 0  :           0.165 MB
  | Peak value for overall tracked memory usage on task 0     :           0.678 MB after allocating wave
  | Largest tracked array allocation on task 0 so far         :           0.132 MB  when allocating H_times_psi
  Note:  These values currently only include a subset of arrays which are explicitly tracked.
  The "true" memory usage will be greater.
------------------------------------------------------------

------------------------------------------------------------
          Begin self-consistency iteration #    1

  Date     :  20200710, Time     :  145559.312
------------------------------------------------------------
  Evaluating new KS density.
  Integration grid: deviation in total charge (<rho> - N_e) =  -7.105427E-15
  Pulay mixing of updated and previous charge densities.

  Evaluating partitioned Hartree potential by multipole expansion.
  | Analytical far-field extrapolation by fixed multipoles:
  | Hartree multipole sum: apparent total charge =  -0.192747E-03
  Summing up the Hartree potential.
  Time summed over all CPUs for potential: real work        0.283 s, elapsed        0.283 s
  | RMS charge density error from multipole expansion :   0.583099E-02

  Integrating Hamiltonian matrix: batch-based integration.
  Time summed over all CPUs for integration: real work        0.493 s, elapsed        0.493 s

  Updating Kohn-Sham eigenvalues and eigenvectors using ELSI and the ELPA eigensolver.
  Finished Cholesky decomposition
  | Time :     0.000 s
  Finished transformation to standard eigenproblem
  | Time :     0.000 s
  Starting LAPACK eigensolver
  Finished solving standard eigenproblem
  | Time :     0.002 s
  Finished back-transformation of eigenvectors
  | Time :     0.000 s

  Obtaining occupation numbers and chemical potential using ELSI.
  | Chemical potential (Fermi level):    -7.89325922eV
  Writing Kohn-Sham eigenvalues.

  State    Occupation    Eigenvalue [Ha]    Eigenvalue [eV]
      1       2.00000         -18.900949         -514.32098
      2       2.00000         -18.839143         -512.63915
      3       2.00000         -14.094381         -383.52761
      4       2.00000         -10.116324         -275.27918
      5       2.00000         -10.061923         -273.79886
      6       2.00000         -10.029275         -272.91045
      7       2.00000          -1.136457          -30.92456
      8       2.00000          -1.031779          -28.07613
      9       2.00000          -0.920317          -25.04311
     10       2.00000          -0.793830          -21.60121
     11       2.00000          -0.707267          -19.24572
     12       2.00000          -0.633342          -17.23411
     13       2.00000          -0.562982          -15.31952
     14       2.00000          -0.542882          -14.77257
     15       2.00000          -0.524841          -14.28166
     16       2.00000          -0.520067          -14.15174
     17       2.00000          -0.489945          -13.33207
     18       2.00000          -0.472243          -12.85039
     19       2.00000          -0.446472          -12.14912
     20       2.00000          -0.443242          -12.06123
     21       2.00000          -0.410540          -11.17138
     22       2.00000          -0.370346          -10.07763
     23       2.00000          -0.330704           -8.99890
     24       2.00000          -0.312869           -8.51361
     25       0.00000          -0.121548           -3.30748
     26       0.00000          -0.035508           -0.96623
     27       0.00000          -0.004780           -0.13008
     28       0.00000           0.015852            0.43136
     29       0.00000           0.040933            1.11385
     30       0.00000           0.044836            1.22004
     31       0.00000           0.057878            1.57494
     32       0.00000           0.068080            1.85256
     33       0.00000           0.091922            2.50133
     34       0.00000           0.096172            2.61698
     35       0.00000           0.120590            3.28143
     36       0.00000           0.159854            4.34986
     37       0.00000           0.181584            4.94114
     38       0.00000           0.231594            6.30199
     39       0.00000           0.244056            6.64111
     40       0.00000           0.261353            7.11176
     41       0.00000           0.286751            7.80289
     42       0.00000           0.316609            8.61538
     43       0.00000           0.326871            8.89461
     44       0.00000           0.333600            9.07771
     45       0.00000           0.378332           10.29493
     46       0.00000           0.404782           11.01467
     47       0.00000           0.422101           11.48596
     48       0.00000           0.460757           12.53784
     49       0.00000           0.475921           12.95047
     50       0.00000           0.498412           13.56248
     51       0.00000           0.508950           13.84922
     52       0.00000           0.582356           15.84670
     53       0.00000           0.625217           17.01302

  Highest occupied state (VBM) at     -8.51361057 eV
  | Occupation number:      2.00000000

  Lowest unoccupied state (CBM) at    -3.30748310 eV
  | Occupation number:      0.00000000

  Overall HOMO-LUMO gap:      5.20612747 eV.

  Total energy components:
  | Sum of eigenvalues            :        -185.38423823 Ha       -5044.56178679 eV
  | XC energy correction          :         -42.11354094 Ha       -1145.96775523 eV
  | XC potential correction       :          54.14206603 Ha        1473.28057642 eV
  | Free-atom electrostatic energy:        -146.86201714 Ha       -3996.31881680 eV
  | Hartree energy correction     :          -3.36471614 Ha         -91.55858469 eV
  | vdW energy correction         :           0.00000000 Ha           0.00000000 eV
  | Entropy correction            :           0.00000000 Ha           0.00000000 eV
  | ---------------------------
  | Total energy                  :        -323.58244642 Ha       -8805.12636709 eV
  | Total energy, T -> 0          :        -323.58244642 Ha       -8805.12636709 eV  <-- do not rely on this value for anything but (periodic) metals
  | Electronic free energy        :        -323.58244642 Ha       -8805.12636709 eV

  Derived energy quantities:
  | Kinetic energy                :         322.27704147 Ha        8769.60449094 eV
  | Electrostatic energy          :        -603.74594695 Ha      -16428.76310280 eV
  | Energy correction for multipole
  | error in Hartree potential    :           0.01208564 Ha           0.32886705 eV
  | Sum of eigenvalues per atom                           :        -388.04321437 eV
  | Total energy (T->0) per atom                          :        -677.31741285 eV  <-- do not rely on this value for anything but (periodic) metals
  | Electronic free energy per atom                       :        -677.31741285 eV

  Self-consistency convergence accuracy:
  | Change of charge density      :  0.5853E+00
  | Change of sum of eigenvalues  :  0.9385E+02 eV
  | Change of total energy        :  0.4994E+01 eV

  End self-consistency iteration #     1       :  max(cpu_time)    wall_clock(cpu1)
  | Time for this iteration                    :        1.183 s           1.185 s
  | Charge density update                      :        0.390 s           0.390 s
  | Density mixing                             :        0.005 s           0.005 s
  | Hartree multipole update                   :        0.009 s           0.009 s
  | Hartree multipole summation                :        0.284 s           0.284 s
  | Integration                                :        0.493 s           0.493 s
  | Solution of K.-S. eqns.                    :        0.002 s           0.003 s
  | Total energy evaluation                    :        0.000 s           0.000 s

  Partial memory accounting:
  | Current value for overall tracked memory usage on task 0  :           0.165 MB
  | Peak value for overall tracked memory usage on task 0     :           0.695 MB after allocating gradient_basis_wave
  | Largest tracked array allocation on task 0 so far         :           0.397 MB  when allocating gradient_basis_wave
  Note:  These values currently only include a subset of arrays which are explicitly tracked.
  The "true" memory usage will be greater.
------------------------------------------------------------

------------------------------------------------------------
          Begin self-consistency iteration #    2

  Date     :  20200710, Time     :  145600.498
------------------------------------------------------------
  Evaluating new KS density.
  Integration grid: deviation in total charge (<rho> - N_e) =   3.552714E-14
  Pulay mixing of updated and previous charge densities.

  Evaluating partitioned Hartree potential by multipole expansion.
  | Analytical far-field extrapolation by fixed multipoles:
  | Hartree multipole sum: apparent total charge =  -0.332217E-03
  Summing up the Hartree potential.
  Time summed over all CPUs for potential: real work        0.283 s, elapsed        0.283 s
  | RMS charge density error from multipole expansion :   0.138696E-01

  Integrating Hamiltonian matrix: batch-based integration.
  Time summed over all CPUs for integration: real work        0.495 s, elapsed        0.495 s

  Updating Kohn-Sham eigenvalues and eigenvectors using ELSI and the ELPA eigensolver.
  Finished Cholesky decomposition
  | Time :     0.000 s
  Finished transformation to standard eigenproblem
  | Time :     0.000 s
  Starting LAPACK eigensolver
  Finished solving standard eigenproblem
  | Time :     0.001 s
  Finished back-transformation of eigenvectors
  | Time :     0.000 s

  Obtaining occupation numbers and chemical potential using ELSI.
  | Chemical potential (Fermi level):    -2.36362318eV
  Highest occupied state (VBM) at     -6.47453178 eV
  | Occupation number:      2.00000000

  Lowest unoccupied state (CBM) at    -2.08794006 eV
  | Occupation number:      0.00000000

  Overall HOMO-LUMO gap:      4.38659172 eV.

  Checking to see if s.c.f. parameters should be adjusted.

  Total energy components:
  | Sum of eigenvalues            :        -181.77730270 Ha       -4946.41207722 eV
  | XC energy correction          :         -42.47350684 Ha       -1155.76292581 eV
  | XC potential correction       :          54.60873332 Ha        1485.97923934 eV
  | Free-atom electrostatic energy:        -146.86201714 Ha       -3996.31881680 eV
  | Hartree energy correction     :          -6.99992327 Ha        -190.47760349 eV
  | vdW energy correction         :           0.00000000 Ha           0.00000000 eV
  | Entropy correction            :           0.00000000 Ha           0.00000000 eV
  | ---------------------------
  | Total energy                  :        -323.50401664 Ha       -8802.99218397 eV
  | Total energy, T -> 0          :        -323.50401664 Ha       -8802.99218397 eV  <-- do not rely on this value for anything but (periodic) metals
  | Electronic free energy        :        -323.50401664 Ha       -8802.99218397 eV

  Derived energy quantities:
  | Kinetic energy                :         323.59206728 Ha        8805.38816395 eV
  | Electrostatic energy          :        -604.62257707 Ha      -16452.61742212 eV
  | Energy correction for multipole
  | error in Hartree potential    :           0.02677292 Ha           0.72852821 eV
  | Sum of eigenvalues per atom                           :        -380.49323671 eV
  | Total energy (T->0) per atom                          :        -677.15324492 eV  <-- do not rely on this value for anything but (periodic) metals
  | Electronic free energy per atom                       :        -677.15324492 eV

  Self-consistency convergence accuracy:
  | Change of charge density      :  0.3650E+00
  | Change of sum of eigenvalues  :  0.9815E+02 eV
  | Change of total energy        :  0.2134E+01 eV

  End self-consistency iteration #     2       :  max(cpu_time)    wall_clock(cpu1)
  | Time for this iteration                    :        1.178 s           1.179 s
  | Charge density update                      :        0.382 s           0.382 s
  | Density mixing                             :        0.007 s           0.007 s
  | Hartree multipole update                   :        0.009 s           0.009 s
  | Hartree multipole summation                :        0.283 s           0.283 s
  | Integration                                :        0.495 s           0.496 s
  | Solution of K.-S. eqns.                    :        0.002 s           0.002 s
  | Total energy evaluation                    :        0.000 s           0.000 s

  Partial memory accounting:
  | Current value for overall tracked memory usage on task 0  :           0.166 MB
  | Peak value for overall tracked memory usage on task 0     :           0.695 MB after allocating gradient_basis_wave
  | Largest tracked array allocation on task 0 so far         :           0.397 MB  when allocating gradient_basis_wave
  Note:  These values currently only include a subset of arrays which are explicitly tracked.
  The "true" memory usage will be greater.
------------------------------------------------------------

------------------------------------------------------------
          Begin self-consistency iteration #    3

  Date     :  20200710, Time     :  145601.678
------------------------------------------------------------
  Evaluating new KS density.
  Integration grid: deviation in total charge (<rho> - N_e) =  -7.105427E-15
  Pulay mixing of updated and previous charge densities.

  Evaluating partitioned Hartree potential by multipole expansion.
  | Analytical far-field extrapolation by fixed multipoles:
  | Hartree multipole sum: apparent total charge =  -0.432302E-03
  Summing up the Hartree potential.
  Time summed over all CPUs for potential: real work        0.283 s, elapsed        0.283 s
  | RMS charge density error from multipole expansion :   0.220989E-01

  Integrating Hamiltonian matrix: batch-based integration.
  Time summed over all CPUs for integration: real work        0.487 s, elapsed        0.487 s

  Updating Kohn-Sham eigenvalues and eigenvectors using ELSI and the ELPA eigensolver.
  Finished Cholesky decomposition
  | Time :     0.000 s
  Finished transformation to standard eigenproblem
  | Time :     0.000 s
  Starting LAPACK eigensolver
  Finished solving standard eigenproblem
  | Time :     0.001 s
  Finished back-transformation of eigenvectors
  | Time :     0.000 s

  Obtaining occupation numbers and chemical potential using ELSI.
  | Chemical potential (Fermi level):    -1.67829413eV
  Highest occupied state (VBM) at     -5.79483724 eV
  | Occupation number:      2.00000000

  Lowest unoccupied state (CBM) at    -1.40464561 eV
  | Occupation number:      0.00000000

  Overall HOMO-LUMO gap:      4.39019163 eV.

  Total energy components:
  | Sum of eigenvalues            :        -180.48680385 Ha       -4911.29581666 eV
  | XC energy correction          :         -42.62428682 Ha       -1159.86585776 eV
  | XC potential correction       :          54.80089277 Ha        1491.20816412 eV
  | Free-atom electrostatic energy:        -146.86201714 Ha       -3996.31881680 eV
  | Hartree energy correction     :          -8.31888702 Ha        -226.36843322 eV
  | vdW energy correction         :           0.00000000 Ha           0.00000000 eV
  | Entropy correction            :           0.00000000 Ha           0.00000000 eV
  | ---------------------------
  | Total energy                  :        -323.49110205 Ha       -8802.64076032 eV
  | Total energy, T -> 0          :        -323.49110205 Ha       -8802.64076032 eV  <-- do not rely on this value for anything but (periodic) metals
  | Electronic free energy        :        -323.49110205 Ha       -8802.64076032 eV

  Derived energy quantities:
  | Kinetic energy                :         323.13788649 Ha        8793.02927592 eV
  | Electrostatic energy          :        -604.00470173 Ha      -16435.80417848 eV
  | Energy correction for multipole
  | error in Hartree potential    :           0.03844393 Ha           1.04611253 eV
  | Sum of eigenvalues per atom                           :        -377.79198590 eV
  | Total energy (T->0) per atom                          :        -677.12621233 eV  <-- do not rely on this value for anything but (periodic) metals
  | Electronic free energy per atom                       :        -677.12621233 eV

  Self-consistency convergence accuracy:
  | Change of charge density      :  0.2042E+00
  | Change of sum of eigenvalues  :  0.3512E+02 eV
  | Change of total energy        :  0.3514E+00 eV

  End self-consistency iteration #     3       :  max(cpu_time)    wall_clock(cpu1)
  | Time for this iteration                    :        1.172 s           1.172 s
  | Charge density update                      :        0.382 s           0.382 s
  | Density mixing                             :        0.008 s           0.008 s
  | Hartree multipole update                   :        0.009 s           0.009 s
  | Hartree multipole summation                :        0.284 s           0.284 s
  | Integration                                :        0.487 s           0.487 s
  | Solution of K.-S. eqns.                    :        0.002 s           0.002 s
  | Total energy evaluation                    :        0.000 s           0.000 s

  Partial memory accounting:
  | Current value for overall tracked memory usage on task 0  :           0.166 MB
  | Peak value for overall tracked memory usage on task 0     :           0.695 MB after allocating gradient_basis_wave
  | Largest tracked array allocation on task 0 so far         :           0.397 MB  when allocating gradient_basis_wave
  Note:  These values currently only include a subset of arrays which are explicitly tracked.
  The "true" memory usage will be greater.
------------------------------------------------------------

------------------------------------------------------------
          Begin self-consistency iteration #    4

  Date     :  20200710, Time     :  145602.851
------------------------------------------------------------
  Evaluating new KS density.
  Integration grid: deviation in total charge (<rho> - N_e) =  -6.394885E-14
  Pulay mixing of updated and previous charge densities.

  Evaluating partitioned Hartree potential by multipole expansion.
  | Analytical far-field extrapolation by fixed multipoles:
  | Hartree multipole sum: apparent total charge =  -0.463553E-03
  Summing up the Hartree potential.
  Time summed over all CPUs for potential: real work        0.283 s, elapsed        0.283 s
  | RMS charge density error from multipole expansion :   0.252950E-01

  Integrating Hamiltonian matrix: batch-based integration.
  Time summed over all CPUs for integration: real work        0.487 s, elapsed        0.487 s

  Updating Kohn-Sham eigenvalues and eigenvectors using ELSI and the ELPA eigensolver.
  Finished Cholesky decomposition
  | Time :     0.000 s
  Finished transformation to standard eigenproblem
  | Time :     0.000 s
  Starting LAPACK eigensolver
  Finished solving standard eigenproblem
  | Time :     0.002 s
  Finished back-transformation of eigenvectors
  | Time :     0.000 s

  Obtaining occupation numbers and chemical potential using ELSI.
  | Chemical potential (Fermi level):    -1.57284303eV
  Highest occupied state (VBM) at     -5.62312999 eV
  | Occupation number:      2.00000000

  Lowest unoccupied state (CBM) at    -1.32193210 eV
  | Occupation number:      0.00000000

  Overall HOMO-LUMO gap:      4.30119790 eV.

  Total energy components:
  | Sum of eigenvalues            :        -180.32612129 Ha       -4906.92342170 eV
  | XC energy correction          :         -42.66173963 Ha       -1160.88500042 eV
  | XC potential correction       :          54.84817057 Ha        1492.49465856 eV
  | Free-atom electrostatic energy:        -146.86201714 Ha       -3996.31881680 eV
  | Hartree energy correction     :          -8.48858930 Ha        -230.98626734 eV
  | vdW energy correction         :           0.00000000 Ha           0.00000000 eV
  | Entropy correction            :          -0.00000000 Ha          -0.00000000 eV
  | ---------------------------
  | Total energy                  :        -323.49029678 Ha       -8802.61884771 eV
  | Total energy, T -> 0          :        -323.49029678 Ha       -8802.61884771 eV  <-- do not rely on this value for anything but (periodic) metals
  | Electronic free energy        :        -323.49029678 Ha       -8802.61884771 eV

  Derived energy quantities:
  | Kinetic energy                :         322.79474947 Ha        8783.69204229 eV
  | Electrostatic energy          :        -603.62330662 Ha      -16425.42588958 eV
  | Energy correction for multipole
  | error in Hartree potential    :           0.04259701 Ha           1.15912357 eV
  | Sum of eigenvalues per atom                           :        -377.45564782 eV
  | Total energy (T->0) per atom                          :        -677.12452675 eV  <-- do not rely on this value for anything but (periodic) metals
  | Electronic free energy per atom                       :        -677.12452675 eV

  Self-consistency convergence accuracy:
  | Change of charge density      :  0.6083E-01
  | Change of sum of eigenvalues  :  0.4372E+01 eV
  | Change of total energy        :  0.2191E-01 eV

  End self-consistency iteration #     4       :  max(cpu_time)    wall_clock(cpu1)
  | Time for this iteration                    :        1.173 s           1.173 s
  | Charge density update                      :        0.382 s           0.382 s
  | Density mixing                             :        0.009 s           0.010 s
  | Hartree multipole update                   :        0.009 s           0.009 s
  | Hartree multipole summation                :        0.283 s           0.283 s
  | Integration                                :        0.487 s           0.487 s
  | Solution of K.-S. eqns.                    :        0.002 s           0.002 s
  | Total energy evaluation                    :        0.000 s           0.000 s

  Partial memory accounting:
  | Current value for overall tracked memory usage on task 0  :           0.166 MB
  | Peak value for overall tracked memory usage on task 0     :           0.696 MB after allocating gradient_basis_wave
  | Largest tracked array allocation on task 0 so far         :           0.397 MB  when allocating gradient_basis_wave
  Note:  These values currently only include a subset of arrays which are explicitly tracked.
  The "true" memory usage will be greater.
------------------------------------------------------------

------------------------------------------------------------
          Begin self-consistency iteration #    5

  Date     :  20200710, Time     :  145604.025
------------------------------------------------------------
  Evaluating new KS density.
  Integration grid: deviation in total charge (<rho> - N_e) =  -3.552714E-14
  Pulay mixing of updated and previous charge densities.

  Evaluating partitioned Hartree potential by multipole expansion.
  | Analytical far-field extrapolation by fixed multipoles:
  | Hartree multipole sum: apparent total charge =  -0.457155E-03
  Summing up the Hartree potential.
  Time summed over all CPUs for potential: real work        0.283 s, elapsed        0.283 s
  | RMS charge density error from multipole expansion :   0.250641E-01

  Integrating Hamiltonian matrix: batch-based integration.
  Time summed over all CPUs for integration: real work        0.487 s, elapsed        0.487 s

  Updating Kohn-Sham eigenvalues and eigenvectors using ELSI and the ELPA eigensolver.
  Finished Cholesky decomposition
  | Time :     0.000 s
  Finished transformation to standard eigenproblem
  | Time :     0.000 s
  Starting LAPACK eigensolver
  Finished solving standard eigenproblem
  | Time :     0.002 s
  Finished back-transformation of eigenvectors
  | Time :     0.000 s

  Obtaining occupation numbers and chemical potential using ELSI.
  | Chemical potential (Fermi level):    -1.64538582eV
  Highest occupied state (VBM) at     -5.70287445 eV
  | Occupation number:      2.00000000

  Lowest unoccupied state (CBM) at    -1.41041181 eV
  | Occupation number:      0.00000000

  Overall HOMO-LUMO gap:      4.29246264 eV.

  Total energy components:
  | Sum of eigenvalues            :        -180.53579953 Ha       -4912.62905702 eV
  | XC energy correction          :         -42.63647875 Ha       -1160.19761699 eV
  | XC potential correction       :          54.81538930 Ha        1491.60263475 eV
  | Free-atom electrostatic energy:        -146.86201714 Ha       -3996.31881680 eV
  | Hartree energy correction     :          -8.27108798 Ha        -225.06775527 eV
  | vdW energy correction         :           0.00000000 Ha           0.00000000 eV
  | Entropy correction            :          -0.00000000 Ha          -0.00000000 eV
  | ---------------------------
  | Total energy                  :        -323.48999410 Ha       -8802.61061133 eV
  | Total energy, T -> 0          :        -323.48999410 Ha       -8802.61061133 eV  <-- do not rely on this value for anything but (periodic) metals
  | Electronic free energy        :        -323.48999410 Ha       -8802.61061133 eV

  Derived energy quantities:
  | Kinetic energy                :         322.67390041 Ha        8780.40357212 eV
  | Electrostatic energy          :        -603.52741576 Ha      -16422.81656646 eV
  | Energy correction for multipole
  | error in Hartree potential    :           0.04197973 Ha           1.14232650 eV
  | Sum of eigenvalues per atom                           :        -377.89454285 eV
  | Total energy (T->0) per atom                          :        -677.12389318 eV  <-- do not rely on this value for anything but (periodic) metals
  | Electronic free energy per atom                       :        -677.12389318 eV

  Self-consistency convergence accuracy:
  | Change of charge density      :  0.2054E-01
  | Change of sum of eigenvalues  : -0.5706E+01 eV
  | Change of total energy        :  0.8236E-02 eV

  End self-consistency iteration #     5       :  max(cpu_time)    wall_clock(cpu1)
  | Time for this iteration                    :        1.175 s           1.175 s
  | Charge density update                      :        0.382 s           0.382 s
  | Density mixing                             :        0.011 s           0.011 s
  | Hartree multipole update                   :        0.009 s           0.009 s
  | Hartree multipole summation                :        0.283 s           0.284 s
  | Integration                                :        0.487 s           0.487 s
  | Solution of K.-S. eqns.                    :        0.002 s           0.002 s
  | Total energy evaluation                    :        0.000 s           0.000 s

  Partial memory accounting:
  | Current value for overall tracked memory usage on task 0  :           0.166 MB
  | Peak value for overall tracked memory usage on task 0     :           0.696 MB after allocating gradient_basis_wave
  | Largest tracked array allocation on task 0 so far         :           0.397 MB  when allocating gradient_basis_wave
  Note:  These values currently only include a subset of arrays which are explicitly tracked.
  The "true" memory usage will be greater.
------------------------------------------------------------

------------------------------------------------------------
          Begin self-consistency iteration #    6

  Date     :  20200710, Time     :  145605.201
------------------------------------------------------------
  Evaluating new KS density.
  Integration grid: deviation in total charge (<rho> - N_e) =  -7.105427E-15
  Pulay mixing of updated and previous charge densities.

  Evaluating partitioned Hartree potential by multipole expansion.
  | Analytical far-field extrapolation by fixed multipoles:
  | Hartree multipole sum: apparent total charge =  -0.460828E-03
  Summing up the Hartree potential.
  Time summed over all CPUs for potential: real work        0.283 s, elapsed        0.283 s
  | RMS charge density error from multipole expansion :   0.254955E-01

  Integrating Hamiltonian matrix: batch-based integration.
  Time summed over all CPUs for integration: real work        0.488 s, elapsed        0.488 s

  Updating Kohn-Sham eigenvalues and eigenvectors using ELSI and the ELPA eigensolver.
  Finished Cholesky decomposition
  | Time :     0.000 s
  Finished transformation to standard eigenproblem
  | Time :     0.000 s
  Starting LAPACK eigensolver
  Finished solving standard eigenproblem
  | Time :     0.001 s
  Finished back-transformation of eigenvectors
  | Time :     0.000 s

  Obtaining occupation numbers and chemical potential using ELSI.
  | Chemical potential (Fermi level):    -1.63908559eV
  Highest occupied state (VBM) at     -5.66605710 eV
  | Occupation number:      2.00000000

  Lowest unoccupied state (CBM) at    -1.41886067 eV
  | Occupation number:      0.00000000

  Overall HOMO-LUMO gap:      4.24719643 eV.

  Total energy components:
  | Sum of eigenvalues            :        -180.52980945 Ha       -4912.46605869 eV
  | XC energy correction          :         -42.63606916 Ha       -1160.18647161 eV
  | XC potential correction       :          54.81483449 Ha        1491.58753751 eV
  | Free-atom electrostatic energy:        -146.86201714 Ha       -3996.31881680 eV
  | Hartree energy correction     :          -8.27688835 Ha        -225.22559135 eV
  | vdW energy correction         :           0.00000000 Ha           0.00000000 eV
  | Entropy correction            :          -0.00000000 Ha          -0.00000000 eV
  | ---------------------------
  | Total energy                  :        -323.48994962 Ha       -8802.60940094 eV
  | Total energy, T -> 0          :        -323.48994962 Ha       -8802.60940094 eV  <-- do not rely on this value for anything but (periodic) metals
  | Electronic free energy        :        -323.48994962 Ha       -8802.60940094 eV

  Derived energy quantities:
  | Kinetic energy                :         322.59821111 Ha        8778.34396150 eV
  | Electrostatic energy          :        -603.45209156 Ha      -16420.76689083 eV
  | Energy correction for multipole
  | error in Hartree potential    :           0.04240715 Ha           1.15395716 eV
  | Sum of eigenvalues per atom                           :        -377.88200451 eV
  | Total energy (T->0) per atom                          :        -677.12380007 eV  <-- do not rely on this value for anything but (periodic) metals
  | Electronic free energy per atom                       :        -677.12380007 eV

  Self-consistency convergence accuracy:
  | Change of charge density      :  0.1039E-01
  | Change of sum of eigenvalues  :  0.1630E+00 eV
  | Change of total energy        :  0.1210E-02 eV

  End self-consistency iteration #     6       :  max(cpu_time)    wall_clock(cpu1)
  | Time for this iteration                    :        1.176 s           1.176 s
  | Charge density update                      :        0.382 s           0.382 s
  | Density mixing                             :        0.012 s           0.012 s
  | Hartree multipole update                   :        0.009 s           0.009 s
  | Hartree multipole summation                :        0.283 s           0.283 s
  | Integration                                :        0.488 s           0.488 s
  | Solution of K.-S. eqns.                    :        0.002 s           0.002 s
  | Total energy evaluation                    :        0.000 s           0.000 s

  Partial memory accounting:
  | Current value for overall tracked memory usage on task 0  :           0.166 MB
  | Peak value for overall tracked memory usage on task 0     :           0.696 MB after allocating gradient_basis_wave
  | Largest tracked array allocation on task 0 so far         :           0.397 MB  when allocating gradient_basis_wave
  Note:  These values currently only include a subset of arrays which are explicitly tracked.
  The "true" memory usage will be greater.
------------------------------------------------------------

------------------------------------------------------------
          Begin self-consistency iteration #    7

  Date     :  20200710, Time     :  145606.378
------------------------------------------------------------
  Evaluating new KS density.
  Integration grid: deviation in total charge (<rho> - N_e) =   0.000000E+00
  Pulay mixing of updated and previous charge densities.

  Evaluating partitioned Hartree potential by multipole expansion.
  | Analytical far-field extrapolation by fixed multipoles:
  | Hartree multipole sum: apparent total charge =  -0.461832E-03
  Summing up the Hartree potential.
  Time summed over all CPUs for potential: real work        0.283 s, elapsed        0.283 s
  | RMS charge density error from multipole expansion :   0.256285E-01

  Integrating Hamiltonian matrix: batch-based integration.
  Time summed over all CPUs for integration: real work        0.487 s, elapsed        0.487 s

  Updating Kohn-Sham eigenvalues and eigenvectors using ELSI and the ELPA eigensolver.
  Finished Cholesky decomposition
  | Time :     0.000 s
  Finished transformation to standard eigenproblem
  | Time :     0.000 s
  Starting LAPACK eigensolver
  Finished solving standard eigenproblem
  | Time :     0.001 s
  Finished back-transformation of eigenvectors
  | Time :     0.000 s

[...]
  |   Hirshfeld dipole moment :      0.06239889
  |   Hirshfeld second moments:      0.00315204      -0.02579732      -0.01894868
  |                                 -0.02579732      -0.01046656       0.01221335
  |                                 -0.01894868       0.01221335      -0.01664912
  ----------------------------------------------------------------------
  | Atom    12: O
  |   Hirshfeld charge        :     -0.14610170
  |   Free atom volume        :     23.61338643
  |   Hirshfeld volume        :     20.75253819
  |   Hirshfeld dipole vector :      0.02971304       0.00466930       0.02511121
  |   Hirshfeld dipole moment :      0.03918214
  |   Hirshfeld second moments:      0.05078216      -0.01344052      -0.01409032
  |                                 -0.01344052       0.10356386       0.00843097
  |                                 -0.01409032       0.00843097       0.03304914
  ----------------------------------------------------------------------
  | Atom    13: H
  |   Hirshfeld charge        :      0.18046359
  |   Free atom volume        :      9.95071624
  |   Hirshfeld volume        :      6.13470206
  |   Hirshfeld dipole vector :      0.05792344      -0.10902181       0.00102473
  |   Hirshfeld dipole moment :      0.12345821
  |   Hirshfeld second moments:      0.11835681       0.00220592      -0.01014280
  |                                  0.00220592       0.12638466       0.00131307
  |                                 -0.01014280       0.00131307       0.09896295
  ----------------------------------------------------------------------


  Total energy components:
  | Sum of eigenvalues            :        -180.52543198 Ha       -4912.34694151 eV
  | XC energy correction          :         -42.63319740 Ha       -1160.10832704 eV
  | XC potential correction       :          54.81119672 Ha        1491.48854882 eV
  | Free-atom electrostatic energy:        -146.86201714 Ha       -3996.31881680 eV
  | Hartree energy correction     :          -8.28047899 Ha        -225.32329772 eV
  | vdW energy correction         :          -0.00312212 Ha          -0.08495714 eV
  | Entropy correction            :          -0.00000000 Ha          -0.00000000 eV
  | ---------------------------
  | Total energy                  :        -323.49305091 Ha       -8802.69379140 eV
  | Total energy, T -> 0          :        -323.49305091 Ha       -8802.69379140 eV  <-- do not rely on this value for anything but (periodic) metals
  | Electronic free energy        :        -323.49305091 Ha       -8802.69379140 eV

  Derived energy quantities:
  | Kinetic energy                :         322.55910672 Ha        8777.27987693 eV
  | Electrostatic energy          :        -603.41583811 Ha      -16419.78038414 eV
  | Energy correction for multipole
  | error in Hartree potential    :           0.04250549 Ha           1.15663336 eV
  | Sum of eigenvalues per atom                           :        -377.87284165 eV
  | Total energy (T->0) per atom                          :        -677.13029165 eV  <-- do not rely on this value for anything but (periodic) metals
  | Electronic free energy per atom                       :        -677.13029165 eV

  atomic forces [eV/Ang]:
  -----------------------
  atom #    1
   Hellmann-Feynman              :  0.550143E+00  0.428180E+00  0.760894E+00
   Ionic forces                  :  0.000000E+00  0.000000E+00  0.000000E+00
   Multipole                     :  0.223230E+00  0.286843E+00 -0.297017E+00
   Pulay + GGA                   : -0.131092E+01 -0.397602E+00 -0.101609E+01
   Van der Waals                 :  0.236877E-02  0.476572E-02 -0.172447E-02
   ----------------------------------------------------------------
   Total forces(   1)            : -0.535176E+00  0.322187E+00 -0.553935E+00
  atom #    2
   Hellmann-Feynman              :  0.473321E+00 -0.100618E+00  0.467016E+00
   Ionic forces                  :  0.000000E+00  0.000000E+00  0.000000E+00
   Multipole                     :  0.143535E+00  0.317170E-01 -0.504623E-01
   Pulay + GGA                   : -0.114972E+00  0.198691E-01  0.687884E-02
   Van der Waals                 :  0.847259E-02 -0.499505E-02 -0.111339E-02
   ----------------------------------------------------------------
   Total forces(   2)            :  0.510356E+00 -0.540265E-01  0.422319E+00
  atom #    3
   Hellmann-Feynman              : -0.125805E+02  0.552496E+00  0.953477E+00
   Ionic forces                  :  0.000000E+00  0.000000E+00  0.000000E+00
   Multipole                     : -0.737632E-01  0.107621E+00 -0.861696E+00
   Pulay + GGA                   :  0.123115E+02 -0.656562E+00  0.782805E+00
   Van der Waals                 :  0.333831E-02 -0.877738E-02 -0.617631E-02
   ----------------------------------------------------------------
   Total forces(   3)            : -0.339430E+00 -0.522314E-02  0.868410E+00
  atom #    4
   Hellmann-Feynman              :  0.220304E+00 -0.484527E-02 -0.819993E-01
   Ionic forces                  :  0.000000E+00  0.000000E+00  0.000000E+00
   Multipole                     :  0.381939E-01  0.198059E-01 -0.100333E+00
   Pulay + GGA                   : -0.155839E+00 -0.134722E+00  0.859220E-01
   Van der Waals                 : -0.324614E-02 -0.651202E-02 -0.571250E-02
   ----------------------------------------------------------------
   Total forces(   4)            :  0.994124E-01 -0.126273E+00 -0.102122E+00
  atom #    5
   Hellmann-Feynman              :  0.192158E+00 -0.581757E-01 -0.265702E+00
   Ionic forces                  :  0.000000E+00  0.000000E+00  0.000000E+00
   Multipole                     :  0.398524E-01 -0.489038E-01 -0.106240E+00
   Pulay + GGA                   : -0.171857E+00  0.141091E+00  0.940176E-01
   Van der Waals                 : -0.157635E-02  0.303182E-02 -0.231612E-02
   ----------------------------------------------------------------
   Total forces(   5)            :  0.585773E-01  0.370433E-01 -0.280241E+00
  atom #    6
   Hellmann-Feynman              : -0.269676E+00 -0.653632E+00  0.387741E+00
   Ionic forces                  :  0.000000E+00  0.000000E+00  0.000000E+00
   Multipole                     : -0.104348E+00  0.694900E+00  0.244463E+00
   Pulay + GGA                   :  0.476194E+00 -0.440784E+00 -0.619671E+00
   Van der Waals                 : -0.356922E-02  0.469400E-02  0.145626E-03
   ----------------------------------------------------------------
   Total forces(   6)            :  0.986013E-01 -0.394821E+00  0.126783E-01
  atom #    7
   Hellmann-Feynman              : -0.190200E+00 -0.406597E-01 -0.661959E-01
   Ionic forces                  :  0.000000E+00  0.000000E+00  0.000000E+00
   Multipole                     : -0.123974E+00  0.476251E-01  0.323614E-01
   Pulay + GGA                   :  0.118689E+00 -0.159387E-01 -0.308590E-01
   Van der Waals                 : -0.517056E-03  0.205333E-02  0.219439E-02
   ----------------------------------------------------------------
   Total forces(   7)            : -0.196002E+00 -0.691993E-02 -0.624991E-01
  atom #    8
   Hellmann-Feynman              :  0.118506E+00 -0.445891E-01  0.112489E+00
   Ionic forces                  :  0.000000E+00  0.000000E+00  0.000000E+00
   Multipole                     :  0.122159E-01  0.643637E-01  0.126498E+00
   Pulay + GGA                   : -0.444585E-01 -0.375928E-01 -0.945134E-01
   Van der Waals                 : -0.245141E-02  0.115764E-01  0.126014E-02
   ----------------------------------------------------------------
   Total forces(   8)            :  0.838119E-01 -0.624188E-02  0.145734E+00
  atom #    9
   Hellmann-Feynman              :  0.116407E+00  0.799042E-01 -0.182338E+00
   Ionic forces                  :  0.000000E+00  0.000000E+00  0.000000E+00
   Multipole                     :  0.192148E-01  0.128056E+00 -0.473357E-02
   Pulay + GGA                   : -0.495020E-01 -0.676331E-01  0.712170E-01
   Van der Waals                 : -0.203519E-02  0.717367E-02  0.919694E-02
   ----------------------------------------------------------------
   Total forces(   9)            :  0.840843E-01  0.147501E+00 -0.106658E+00
  atom #   10
   Hellmann-Feynman              :  0.257891E+01  0.560151E+01  0.102085E+01
   Ionic forces                  :  0.000000E+00  0.000000E+00  0.000000E+00
   Multipole                     :  0.127272E-01 -0.206217E+00  0.330894E+00
   Pulay + GGA                   : -0.187814E+01 -0.271010E+01 -0.112324E+00
   Van der Waals                 :  0.260172E-02 -0.104616E-01  0.206558E-03
   ----------------------------------------------------------------
   Total forces(  10)            :  0.716099E+00  0.267473E+01  0.123963E+01
  atom #   11
   Hellmann-Feynman              :  0.411618E+01 -0.218949E+01  0.140306E+02
   Ionic forces                  :  0.000000E+00  0.000000E+00  0.000000E+00
   Multipole                     :  0.121706E+00 -0.697020E+00  0.789585E+00
   Pulay + GGA                   : -0.301343E+01  0.338477E+01 -0.135895E+02
   Van der Waals                 : -0.304709E-02 -0.116837E-01  0.199741E-02
   ----------------------------------------------------------------
   Total forces(  11)            :  0.122140E+01  0.486567E+00  0.123275E+01
  atom #   12
   Hellmann-Feynman              : -0.109665E+02  0.101856E+01 -0.120655E+02
   Ionic forces                  :  0.000000E+00  0.000000E+00  0.000000E+00
   Multipole                     : -0.102098E+01 -0.977217E+00 -0.491251E+00
   Pulay + GGA                   :  0.110666E+02 -0.211070E+01  0.952051E+01
   Van der Waals                 : -0.700068E-03  0.501303E-02  0.651519E-02
   ----------------------------------------------------------------
   Total forces(  12)            : -0.921542E+00 -0.206434E+01 -0.302969E+01
  atom #   13
   Hellmann-Feynman              : -0.730485E+00 -0.126277E+01  0.279469E+00
   Ionic forces                  :  0.000000E+00  0.000000E+00  0.000000E+00
   Multipole                     :  0.487745E-01 -0.750048E-01 -0.765866E-02
   Pulay + GGA                   : -0.197288E+00  0.319016E+00 -0.566776E-01
   Van der Waals                 :  0.361147E-03  0.412176E-02 -0.447345E-02
   ----------------------------------------------------------------
   Total forces(  13)            : -0.878638E+00 -0.101464E+01  0.210660E+00

  Timings for VdW correction (Tkatchenko-Scheffler 2009 or later):
  | CPU time:        0.089 s, Wall clock time:        0.089 s.
  Removing unitary transformations (pure translations, rotations) from forces on atoms.
  Atomic forces before filtering:
  | Net force on center of mass :   0.155693E-02 -0.445569E-02 -0.296524E-02 eV/A
  | Net torque on center of mass:  -0.503758E-02  0.619350E-02  0.325933E-02 eV
  Atomic forces after filtering:
  | Net force on center of mass :  -0.356812E-15  0.178406E-15  0.490617E-15 eV/A
  | Net torque on center of mass:  -0.731666E-15  0.495644E-15  0.000000E+00 eV

  Energy and forces in a compact form:
  | Total energy uncorrected      :         -0.880269379139609E+04 eV
  | Total energy corrected        :         -0.880269379139609E+04 eV  <-- do not rely on this value for anything but (periodic) metals
  | Electronic free energy        :         -0.880269379139609E+04 eV
  Total atomic forces (unitary forces cleaned) [eV/Ang]:
  |   1         -0.535252404835410E+00          0.322507022353296E+00         -0.553601297214500E+00
  |   2          0.510279016370556E+00         -0.538193290687494E-01          0.422954872293408E+00
  |   3         -0.339116428306406E+00         -0.470312766723739E-02          0.868611430508144E+00
  |   4          0.999420262541385E-01         -0.125743550348787E+00         -0.101723901593457E+00
  |   5          0.589250513071833E-01          0.375802088415768E-01         -0.280049266611694E+00
  |   6          0.984531439375716E-01         -0.394527623715233E+00          0.130097039699650E-01
  |   7         -0.196151722184954E+00         -0.651573465750032E-02         -0.624667072469775E-01
  |   8          0.833801839524131E-01         -0.609588168204475E-02          0.146166778033429E+00
  |   9          0.841683941552973E-01          0.147811010786711E+00         -0.106130338358517E+00
  |  10          0.715683815899586E+00          0.267501319409697E+01          0.123971454256601E+01
  |  11          0.122064375978752E+01          0.486696382362837E+00          0.123288964306466E+01
  |  12         -0.921858741505494E+00         -0.206391675453557E+01         -0.302988896310318E+01
  |  13         -0.879096094832000E+00         -0.101428581676626E+01          0.210513503692718E+00

  ------------------------------------ 
  Start decomposition of the XC Energy 
  ------------------------------------ 
  X and C from original XC functional choice 
  Hartree-Fock Energy :          0.000000000 Ha              0.000000000 eV
  X Energy            :        -41.033748088 Ha          -1116.585096698 eV
  C Energy            :         -1.599449317 Ha            -43.523230342 eV
  Total XC Energy     :        -42.633197405 Ha          -1160.108327040 eV
  ------------------------------------ 
  LDA X and C from self-consistent density 
  X Energy LDA        :        -37.251163446 Ha          -1013.655731615 eV
  C Energy LDA        :         -3.138159621 Ha            -85.393668071 eV
  ------------------------------------ 
  End decomposition of the XC Energy 
  ------------------------------------ 

------------------------------------------------------------

------------------------------------------------------------------------------
  Final output of selected total energy values:

  The following output summarizes some interesting total energy values
  at the end of a run (AFTER all relaxation, molecular dynamics, etc.).

  | Total energy of the DFT / Hartree-Fock s.c.f. calculation      :          -8802.693791396 eV
  | Final zero-broadening corrected energy (caution - metals only) :          -8802.693791396 eV
  | For reference only, the value of 1 Hartree used in FHI-aims is :             27.211384500 eV

  Before relying on these values, please be sure to understand exactly which
  total energy value is referred to by a given number. Different objects may
  all carry the same name 'total energy'. Definitions:

  Total energy of the DFT / Hartree-Fock s.c.f. calculation:
  | Note that this energy does not include ANY quantities calculated after the
  | s.c.f. cycle, in particular not ANY RPA, MP2, etc. many-body perturbation terms.

  Final zero-broadening corrected energy:
  | For metallic systems only, a broadening of the occupation numbers at the Fermi
  | level can be extrapolated back to zero broadening by an electron-gas inspired
  | formula. For all systems that are not real metals, this value can be
  | meaningless and should be avoided.

------------------------------------------------------------------------------
  Methods described in the following list of references were used in this FHI-aims run.
  If you publish the results, please make sure to cite these reference if they apply.
  FHI-aims is an academic code, and for our developers (often, Ph.D. students
  and postdocs), scientific credit in the community is essential.
  Thank you for helping us!

  For any use of FHI-aims, please cite:

    Volker Blum, Ralf Gehrke, Felix Hanke, Paula Havu, Ville Havu,
    Xinguo Ren, Karsten Reuter, and Matthias Scheffler
    'Ab initio molecular simulations with numeric atom-centered orbitals'
    Computer Physics Communications 180, 2175-2196 (2009)
    http://dx.doi.org/10.1016/j.cpc.2009.06.022


  The scalable eigensolver library ELPA was used in your run.
  ELPA is essential especially for large systems on hundreds or thousands of CPUs.
  For ELPA, please cite:

    Andreas Marek, Volker Blum, Rainer Johanni, Ville Havu, Bruno Lang,
    Thomas Auckenthaler, Alexander Heinecke, Hans-Joachim Bungartz, and Hermann Lederer,
    'The ELPA Library - Scalable Parallel Eigenvalue Solutions
    for Electronic Structure Theory and Computational Science'
    The Journal of Physics: Condensed Matter 26, 213201 (2014).
    http://dx.doi.org/10.1088/0953-8984/26/21/213201


  The ELSI infrastructure was used in your run to solve the Kohn-Sham electronic structure.
  Please check out http://elsi-interchange.org to learn more.
  If scalability is important for your project, please acknowledge ELSI by citing:

    V. W-z. Yu, F. Corsetti, A. Garcia, W. P. Huhn, M. Jacquelin, W. Jia,
    B. Lange, L. Lin, J. Lu, W. Mi, A. Seifitokaldani, A. Vazquez-Mayagoitia,
    C. Yang, H. Yang, and V. Blum
    'ELSI: A unified software interface for Kohn-Sham electronic structure solvers'
    Computer Physics Communications 222, 267-285 (2018).
    http://dx.doi.org/10.1016/j.cpc.2017.09.007


  For the real-space grid partitioning and parallelization used in this calculation, please cite:

    Ville Havu, Volker Blum, Paula Havu, and Matthias Scheffler,
    'Efficient O(N) integration for all-electron electronic structure calculation'
    'using numerically tabulated basis functions'
    Journal of Computational Physics 228, 8367-8379 (2009).
    http://dx.doi.org/10.1016/j.jcp.2009.08.008

  Of course, there are many other important community references, e.g., those cited in the
  above references. Our list is limited to references that describe implementations in the
  FHI-aims code. The reason is purely practical (length of this list) - please credit others as well.

------------------------------------------------------------
          Leaving FHI-aims.
          Date     :  20200710, Time     :  145620.560

          Computational steps:
          | Number of self-consistency cycles          :           16
          | Number of SCF (re)initializations          :            1

          Detailed time accounting                     :  max(cpu_time)    wall_clock(cpu1)
          | Total time                                 :       22.504 s          22.553 s
          | Preparation time                           :        0.146 s           0.147 s
          | Boundary condition initalization           :        0.000 s           0.000 s
          | Grid partitioning                          :        0.111 s           0.111 s
          | Preloading free-atom quantities on grid    :        0.002 s           0.002 s
          | Free-atom superposition energy             :        0.084 s           0.084 s
          | Total time for integrations                :        8.507 s           8.517 s
          | Total time for solution of K.-S. equations :        0.036 s           0.038 s
          | Total time for density & force components  :        7.063 s           7.074 s
          | Total time for mixing                      :        0.212 s           0.215 s
          | Total time for Hartree multipole update    :        0.140 s           0.142 s
          | Total time for Hartree multipole sum       :        5.808 s           5.811 s
          | Total time for total energy evaluation     :        0.003 s           0.001 s
          | Total time for vdW correction              :        0.089 s           0.089 s

          Partial memory accounting:
          | Residual value for overall tracked memory usage across tasks :           0.000 MB (should be 0.000 MB)
          | Peak values for overall tracked memory usage (after allocating hessian_basis_wave):
          |   Minimum:        1.622 MB (on task 1)
          |   Maximum:        1.622 MB (on task 1)
          |   Average:        1.622 MB
          | Largest tracked array allocation (hessian_basis_wave):
          |   Minimum:        0.794 MB (on task 1)
          |   Maximum:        0.794 MB (on task 1)
          |   Average:        0.794 MB
          Note:  These values currently only include a subset of arrays which are explicitly tracked.
          The "true" memory usage will be greater.

          Have a nice day.
------------------------------------------------------------
