  MPI-parallelism will be employed.
------------------------------------------------------------
          Invoking FHI-aims ...
          Version 171221_1
          Compiled on 2019/09/09 at 14:39:39 on host puhti-login2.bullx.

          When using FHI-aims, please cite the following reference:

          Volker Blum, Ralf Gehrke, Felix Hanke, Paula Havu,
          Ville Havu, Xinguo Ren, Karsten Reuter, and Matthias Scheffler,
          'Ab Initio Molecular Simulations with Numeric Atom-Centered Orbitals',
          Computer Physics Communications 180, 2175-2196 (2009)

          For any questions about FHI-aims, please visit the aimsclub website
          with its forums and wiki. Contributions to both the forums and the
          wiki are warmly encouraged - they are for you, and everyone is welcome there.

------------------------------------------------------------



  Date     :  20200710, Time     :  144957.229
  Time zero on CPU 1             :   0.109540000000000E-01  s.
  Internal wall clock time zero  :           363624597.229  s.

  FHI-aims created a unique identifier for this run for later identification
  aims_uuid : 0455443E-F2A7-4A30-A673-D91007D128F3

  Using        1 parallel tasks.
  Task        0 on host r18c46.bullx reporting.

  Performing system and environment tests:
  | Environment variable OMP_NUM_THREADS correctly set to 1.
  | Stacksize not measured: no C compiler
  | Checking for scalapack...
  | Testing pdtran()...
  | All pdtran() tests passed.

  Obtaining array dimensions for all initial allocations:
  
  -----------------------------------------------------------------------
  Parsing control.in (first pass over file, find array dimensions only).
  The contents of control.in will be repeated verbatim below
  unless switched off by setting 'verbatim_writeout .false.' .
  in the first line of control.in .
  -----------------------------------------------------------------------
  
  #########################################################################################
  #
  #  Volker Blum, FHI 2009 : Test run input file control.in for simple H2O
  #
  #########################################################################################
  #
  #  Physical model
  #
    xc                 pbe
    vdw_correction_hirshfeld
    spin               none
    relativistic       none
    charge             0.
  #
  #  SCF convergence
  #
    occupation_type    gaussian 0.01
    mixer              pulay
      n_max_pulay        10
      charge_mix_param   0.2
    sc_accuracy_rho    1E-5
    sc_accuracy_eev    1E-3
    sc_accuracy_etot   1E-6
    sc_accuracy_forces 1E-4
    sc_iter_limit      100
  #
  #  Relaxation
  #
  #  relax_geometry   bfgs 1.e-3
  #
  ################################################################################
  #
  #  FHI-aims code project
  #  VB, Fritz-Haber Institut, 2009
  #
  #  Suggested "light" defaults for H atom (to be pasted into control.in file)
  #  Be sure to double-check any results obtained with these settings for post-processing,
  #  e.g., with the "tight" defaults and larger basis sets.
  #
  ################################################################################
    species        H
  #     global species definitions
      nucleus             1
      mass                1.00794
  #
      l_hartree           4
  #
      cut_pot             3.5  1.5  1.0
      basis_dep_cutoff    1e-4
  #
      radial_base         24 5.0
      radial_multiplier   1
      angular_grids       specified
        division   0.2421   50
        division   0.3822  110
        division   0.4799  194
        division   0.5341  302
  #      division   0.5626  434
  #      division   0.5922  590
  #      division   0.6542  770
  #      division   0.6868 1202
  #      outer_grid  770
        outer_grid  302
  ################################################################################
  #
  #  Definition of "minimal" basis
  #
  ################################################################################
  #     valence basis states
      valence      1  s   1.
  #     ion occupancy
      ion_occ      1  s   0.5
  ################################################################################
  #
  #  Suggested additional basis functions. For production calculations,
  #  uncomment them one after another (the most important basis functions are
  #  listed first).
  #
  #  Basis constructed for dimers: 0.5 A, 0.7 A, 1.0 A, 1.5 A, 2.5 A
  #
  ################################################################################
  #  "First tier" - improvements: -1014.90 meV to -62.69 meV
       hydro 2 s 2.1
       hydro 2 p 3.5
  #  "Second tier" - improvements: -12.89 meV to -1.83 meV
  #     hydro 1 s 0.85
  #     hydro 2 p 3.7
  #     hydro 2 s 1.2
  #     hydro 3 d 7
  #  "Third tier" - improvements: -0.25 meV to -0.12 meV
  #     hydro 4 f 11.2
  #     hydro 3 p 4.8
  #     hydro 4 d 9
  #     hydro 3 s 3.2
  ################################################################################
  #
  #  FHI-aims code project
  #  VB, Fritz-Haber Institut, 2009
  #
  #  Suggested "light" defaults for C atom (to be pasted into control.in file)
  #  Be sure to double-check any results obtained with these settings for post-processing,
  #  e.g., with the "tight" defaults and larger basis sets.
  #
  ################################################################################
    species        C
  #     global species definitions
      nucleus             6
      mass                12.0107
  #
      l_hartree           4
  #
      cut_pot             3.5  1.5  1.0
      basis_dep_cutoff    1e-4
  #
      radial_base         34 5.0
      radial_multiplier   1
      angular_grids specified
        division   0.3326   50
        division   0.5710  110
        division   0.7727  194
        division   0.8772  302
  #      division   0.9334  434
  #      division   0.9625  590
  #      division   0.9924  770
  #      division   1.0230  974
  #      division   1.4589 1202
  #     outer_grid  974
       outer_grid 302
  ################################################################################
  #
  #  Definition of "minimal" basis
  #
  ################################################################################
  #     valence basis states
      valence      2  s   2.
      valence      2  p   2.
  #     ion occupancy
      ion_occ      2  s   1.
      ion_occ      2  p   1.
  ################################################################################
  #
  #  Suggested additional basis functions. For production calculations,
  #  uncomment them one after another (the most important basis functions are
  #  listed first).
  #
  #  Constructed for dimers: 1.0 A, 1.25 A, 1.5 A, 2.0 A, 3.0 A
  #
  ################################################################################
  #  "First tier" - improvements: -1214.57 meV to -155.61 meV
       hydro 2 p 1.7
       hydro 3 d 6
       hydro 2 s 4.9
  #  "Second tier" - improvements: -67.75 meV to -5.23 meV
  #     hydro 4 f 9.8
  #     hydro 3 p 5.2
  #     hydro 3 s 4.3
  #     hydro 5 g 14.4
  #     hydro 3 d 6.2
  #  "Third tier" - improvements: -2.43 meV to -0.60 meV
  #     hydro 2 p 5.6
  #     hydro 2 s 1.4
  #     hydro 3 d 4.9
  #     hydro 4 f 11.2
  #  "Fourth tier" - improvements: -0.39 meV to -0.18 meV
  #     hydro 2 p 2.1
  #     hydro 5 g 16.4
  #     hydro 4 d 13.2
  #     hydro 3 s 13.6
  #     hydro 4 f 17.6
  #  Further basis functions - improvements: -0.08 meV and below
  #     hydro 3 s 2
  #     hydro 3 p 6
  #     hydro 4 d 20
  ################################################################################
  #
  #  FHI-aims code project
  #  VB, Fritz-Haber Institut, 2009
  #
  #  Suggested "light" defaults for N atom (to be pasted into control.in file)
  #  Be sure to double-check any results obtained with these settings for post-processing,
  #  e.g., with the "tight" defaults and larger basis sets.
  #
  ################################################################################
    species        N
  #     global species definitions
      nucleus             7
      mass                14.0067
  #
      l_hartree           4
  #
      cut_pot             3.5  1.5  1.0
      basis_dep_cutoff    1e-4
  #
      radial_base         35 5.0
      radial_multiplier   1
      angular_grids       specified
        division   0.2599   50
        division   0.4601  110
        division   0.5885  194
        division   0.6503  302
  #      division   0.6939  434
  #      division   0.7396  590
  #      division   0.7632  770
  #      division   0.8122  974
  #      division   1.1604 1202
  #      outer_grid  974
        outer_grid  302
  ################################################################################
  #
  #  Definition of "minimal" basis
  #
  ################################################################################
  #     valence basis states
      valence      2  s   2.
      valence      2  p   3.
  #     ion occupancy
      ion_occ      2  s   1.
      ion_occ      2  p   2.
  ################################################################################
  #
  #  Suggested additional basis functions. For production calculations,
  #  uncomment them one after another (the most important basis functions are
  #  listed first).
  #
  #  Constructed for dimers: 1.0 A, 1.1 A, 1.5 A, 2.0 A, 3.0 A
  #
  ################################################################################
  #  "First tier" - improvements: -1193.42 meV to -220.60 meV
       hydro 2 p 1.8
       hydro 3 d 6.8
       hydro 3 s 5.8
  #  "Second tier" - improvements: -80.21 meV to -6.86 meV
  #     hydro 4 f 10.8
  #     hydro 3 p 5.8
  #     hydro 1 s 0.8
  #     hydro 5 g 16
  #     hydro 3 d 4.9
  #  "Third tier" - improvements: -4.29 meV to -0.53 meV
  #     hydro 3 s 16
  #     ionic 2 p auto
  #     hydro 3 d 6.6
  #     hydro 4 f 11.6
  #  "Fourth tier" - improvements: -0.75 meV to -0.25 meV
  #     hydro 2 p 4.5
  #     hydro 2 s 2.4
  #     hydro 5 g 14.4
  #     hydro 4 d 14.4
  #     hydro 4 f 16.8
  # Further basis functions - -0.21 meV and below
  #     hydro 3 p 14.8
  #     hydro 3 s 4.4
  #     hydro 3 d 19.6
  #     hydro 5 g 12.8
  ################################################################################
  #
  #  FHI-aims code project
  #  VB, Fritz-Haber Institut, 2009
  #
  #  Suggested "light" defaults for O atom (to be pasted into control.in file)
  #  Be sure to double-check any results obtained with these settings for post-processing,
  #  e.g., with the "tight" defaults and larger basis sets.
  #
  ################################################################################
    species        O
  #     global species definitions
      nucleus             8
      mass                15.9994
  #
      l_hartree           4
  #
      cut_pot             3.5  1.5  1.0
      basis_dep_cutoff    1e-4
  #
      radial_base         36 5.0
      radial_multiplier   1
       angular_grids specified
        division   0.2659   50
        division   0.4451  110
        division   0.6052  194
        division   0.7543  302
  #      division   0.8014  434
  #      division   0.8507  590
  #      division   0.8762  770
  #      division   0.9023  974
  #      division   1.2339 1202
  #      outer_grid 974
        outer_grid 302
  ################################################################################
  #
  #  Definition of "minimal" basis
  #
  ################################################################################
  #     valence basis states
      valence      2  s   2.
      valence      2  p   4.
  #     ion occupancy
      ion_occ      2  s   1.
      ion_occ      2  p   3.
  ################################################################################
  #
  #  Suggested additional basis functions. For production calculations,
  #  uncomment them one after another (the most important basis functions are
  #  listed first).
  #
  #  Constructed for dimers: 1.0 A, 1.208 A, 1.5 A, 2.0 A, 3.0 A
  #
  ################################################################################
  #  "First tier" - improvements: -699.05 meV to -159.38 meV
       hydro 2 p 1.8
       hydro 3 d 7.6
       hydro 3 s 6.4
  #  "Second tier" - improvements: -49.91 meV to -5.39 meV
  #     hydro 4 f 11.6
  #     hydro 3 p 6.2
  #     hydro 3 d 5.6
  #     hydro 5 g 17.6
  #     hydro 1 s 0.75
  #  "Third tier" - improvements: -2.83 meV to -0.50 meV
  #     ionic 2 p auto
  #     hydro 4 f 10.8
  #     hydro 4 d 4.7
  #     hydro 2 s 6.8
  #  "Fourth tier" - improvements: -0.40 meV to -0.12 meV
  #     hydro 3 p 5
  #     hydro 3 s 3.3
  #     hydro 5 g 15.6
  #     hydro 4 f 17.6
  #     hydro 4 d 14
  # Further basis functions - -0.08 meV and below
  #     hydro 3 s 2.1
  #     hydro 4 d 11.6
  #     hydro 3 p 16
  #     hydro 2 s 17.2
  
  -----------------------------------------------------------------------
  Completed first pass over input file control.in .
  -----------------------------------------------------------------------
  
  
  -----------------------------------------------------------------------
  Parsing geometry.in (first pass over file, find array dimensions only).
  The contents of geometry.in will be repeated verbatim below
  unless switched off by setting 'verbatim_writeout .false.' .
  in the first line of geometry.in .
  -----------------------------------------------------------------------
  
  atom  0.00000 0.00000 0.00000 C
  atom  1.09300 0.00000 0.00000 H
  atom  -0.47961 0.00000 -1.41207 N
  atom  0.22236 0.45626 -1.99593 H
  atom  -0.61408 -0.96350 -1.71160 H
  atom  -0.49584 1.26211 0.72868 C
  atom  -1.58789 1.28919 0.74431 H
  atom  -0.13407 1.27425 1.75947 H
  atom  -0.13407 2.16087 0.22380 H
  atom  -0.39425 -1.28861 0.74398 C
  atom  -0.10189 -1.56493 1.88303 O
  atom  -1.10210 -2.13717 0.06896 O
  atom  -0.37455 -2.65479 -0.31539 H
  
  -----------------------------------------------------------------------
  Completed first pass over input file geometry.in .
  -----------------------------------------------------------------------
  

  Basic array size parameters:
  | Number of species                 :        4
  | Number of atoms                   :       13
  | Max. basis fn. angular momentum   :        2
  | Max. atomic/ionic basis occupied n:        2
  | Max. number of basis fn. types    :        2
  | Max. radial fns per species/type  :        3
  | Max. logarithmic grid size        :     1301
  | Max. radial integration grid size :       36
  | Max. angular integration grid size:      302
  | Max. angular grid division number :        8
  | Radial grid for Hartree potential :     1301
  | Number of spin channels           :        1

------------------------------------------------------------
          Reading file control.in.
------------------------------------------------------------
  XC: Using PBE gradient-corrected functionals.
  Spin treatment: No spin polarisation.
  Non-relativistic treatment of kinetic energy.
  Charge =   0.000000E+00: Neutral system requested explicitly.
  Occupation type: Gaussian broadening, width =   0.100000E-01 eV.
  Using pulay charge density mixing.
  Pulay mixing - number of memorized iterations:   10
  Charge density mixing - mixing parameter:     0.2000
  Convergence accuracy of self-consistent charge density:  0.1000E-04
  Convergence accuracy of sum of eigenvalues:  0.1000E-02
  Convergence accuracy of total energy:  0.1000E-05
  Convergence accuracy of forces:  0.1000E-03
  Maximum number of s.-c. iterations  :   100
 
  Reading configuration options for species H                   .
  | Found nuclear charge :   1.0000
  | Found atomic mass :    1.00794000000000      amu
  | Found l_max for Hartree potential  :   4
  | Found cutoff potl. onset [A], width [A], scale factor :    3.50000    1.50000    1.00000
  | Threshold for basis-dependent cutoff potential is   0.100000E-03
  | Found data for basic radial integration grid :    24 points, outermost radius =    5.000 A
  | Found multiplier for basic radial grid :   1
  | Found angular grid specification: user-specified.
  | Specified grid contains     5 separate shells.
  | Check grid settings after all constraints further below.
  | Found free-atom valence shell :  1 s   1.000
  | No ionic wave fns used. Skipping ion_occ.
  | Found hydrogenic basis function :  2 s   2.100
  | Found hydrogenic basis function :  2 p   3.500
  Species H                   : Missing cutoff potential type.
  Defaulting to exp(1/x)/(1-x)^2 type cutoff potential.
  Species H : No 'logarithmic' tag. Using default grid for free atom:
  | Default logarithmic grid data [bohr] : 0.1000E-03 0.1000E+03 0.1012E+01
  Species H : On-site basis accuracy parameter (for Gram-Schmidt orthonormalisation) not specified.
  Using default value basis_acc =  0.1000000E-03.
  Species H                   : Using default innermost maximum threshold i_radial=  2 for radial functions.
  Species H                   : Default cutoff onset for free atom density etc. : 0.35000000E+01 AA.
  Species H                   : Basic radial grid will be enhanced according to radial_multiplier =   1, to contain    24 grid points.
 
  Reading configuration options for species C                   .
  | Found nuclear charge :   6.0000
  | Found atomic mass :    12.0107000000000      amu
  | Found l_max for Hartree potential  :   4
  | Found cutoff potl. onset [A], width [A], scale factor :    3.50000    1.50000    1.00000
  | Threshold for basis-dependent cutoff potential is   0.100000E-03
  | Found data for basic radial integration grid :    34 points, outermost radius =    5.000 A
  | Found multiplier for basic radial grid :   1
  | Found angular grid specification: user-specified.
  | Specified grid contains     5 separate shells.
  | Check grid settings after all constraints further below.
  | Found free-atom valence shell :  2 s   2.000
  | Found free-atom valence shell :  2 p   2.000
  | No ionic wave fns used. Skipping ion_occ.
  | No ionic wave fns used. Skipping ion_occ.
  | Found hydrogenic basis function :  2 p   1.700
  | Found hydrogenic basis function :  3 d   6.000
  | Found hydrogenic basis function :  2 s   4.900
  Species C                   : Missing cutoff potential type.
  Defaulting to exp(1/x)/(1-x)^2 type cutoff potential.
  Species C : No 'logarithmic' tag. Using default grid for free atom:
  | Default logarithmic grid data [bohr] : 0.1000E-03 0.1000E+03 0.1012E+01
  Species C : On-site basis accuracy parameter (for Gram-Schmidt orthonormalisation) not specified.
  Using default value basis_acc =  0.1000000E-03.
  Species C                   : Using default innermost maximum threshold i_radial=  2 for radial functions.
  Species C                   : Default cutoff onset for free atom density etc. : 0.35000000E+01 AA.
  Species C                   : Basic radial grid will be enhanced according to radial_multiplier =   1, to contain    34 grid points.
 
  Reading configuration options for species N                   .
  | Found nuclear charge :   7.0000
  | Found atomic mass :    14.0067000000000      amu
  | Found l_max for Hartree potential  :   4
  | Found cutoff potl. onset [A], width [A], scale factor :    3.50000    1.50000    1.00000
  | Threshold for basis-dependent cutoff potential is   0.100000E-03
  | Found data for basic radial integration grid :    35 points, outermost radius =    5.000 A
  | Found multiplier for basic radial grid :   1
  | Found angular grid specification: user-specified.
  | Specified grid contains     5 separate shells.
  | Check grid settings after all constraints further below.
  | Found free-atom valence shell :  2 s   2.000
  | Found free-atom valence shell :  2 p   3.000
  | No ionic wave fns used. Skipping ion_occ.
  | No ionic wave fns used. Skipping ion_occ.
  | Found hydrogenic basis function :  2 p   1.800
  | Found hydrogenic basis function :  3 d   6.800
  | Found hydrogenic basis function :  3 s   5.800
  Species N                   : Missing cutoff potential type.
  Defaulting to exp(1/x)/(1-x)^2 type cutoff potential.
  Species N : No 'logarithmic' tag. Using default grid for free atom:
  | Default logarithmic grid data [bohr] : 0.1000E-03 0.1000E+03 0.1012E+01
  Species N : On-site basis accuracy parameter (for Gram-Schmidt orthonormalisation) not specified.
  Using default value basis_acc =  0.1000000E-03.
  Species N                   : Using default innermost maximum threshold i_radial=  2 for radial functions.
  Species N                   : Default cutoff onset for free atom density etc. : 0.35000000E+01 AA.
  Species N                   : Basic radial grid will be enhanced according to radial_multiplier =   1, to contain    35 grid points.
 
  Reading configuration options for species O                   .
  | Found nuclear charge :   8.0000
  | Found atomic mass :    15.9994000000000      amu
  | Found l_max for Hartree potential  :   4
  | Found cutoff potl. onset [A], width [A], scale factor :    3.50000    1.50000    1.00000
  | Threshold for basis-dependent cutoff potential is   0.100000E-03
  | Found data for basic radial integration grid :    36 points, outermost radius =    5.000 A
  | Found multiplier for basic radial grid :   1
  | Found angular grid specification: user-specified.
  | Specified grid contains     5 separate shells.
  | Check grid settings after all constraints further below.
  | Found free-atom valence shell :  2 s   2.000
  | Found free-atom valence shell :  2 p   4.000
  | No ionic wave fns used. Skipping ion_occ.
  | No ionic wave fns used. Skipping ion_occ.
  | Found hydrogenic basis function :  2 p   1.800
  | Found hydrogenic basis function :  3 d   7.600
  | Found hydrogenic basis function :  3 s   6.400
  Species O                   : Missing cutoff potential type.
  Defaulting to exp(1/x)/(1-x)^2 type cutoff potential.
  Species O : No 'logarithmic' tag. Using default grid for free atom:
  | Default logarithmic grid data [bohr] : 0.1000E-03 0.1000E+03 0.1012E+01
  Species O : On-site basis accuracy parameter (for Gram-Schmidt orthonormalisation) not specified.
  Using default value basis_acc =  0.1000000E-03.
  Species O                   : Using default innermost maximum threshold i_radial=  2 for radial functions.
  Species O                   : Default cutoff onset for free atom density etc. : 0.35000000E+01 AA.
  Species O                   : Basic radial grid will be enhanced according to radial_multiplier =   1, to contain    36 grid points.
 
  Finished reading input file 'control.in'. Consistency checks are next.
 
  MPI_IN_PLACE appears to work with this MPI implementation.
  | Keeping use_mpi_in_place .true. (see manual).
  Target number of points in a grid batch is not set. Defaulting to  100
  Method for grid partitioning is not set. Defaulting to parallel hash+maxmin partitioning.
  Batch size limit is not set. Defaulting to    200
  By default, will store active basis functions for each batch.
  If in need of memory, prune_basis_once .false. can be used to disable this option.
  communication_type for Hartree potential was not specified.
  Defaulting to calc_hartree .
  Pulay mixer: Number of initial linear mixing iterations not set.
  Defaulting to    0 iterations.
  Work space size for distributed Hartree potential not set.
  Defaulting to   0.200000E+03 MB.
  Algorithm-dependent basis array size parameters:
  | n_max_pulay                         :       10
  Presetting      1001 iterations before the initial mixing cycle
  is restarted anyway using the sc_init_iter criterion / keyword.
  Presetting a factor      1.000 between actual scf density residual
  and density convergence criterion sc_accuracy_rho below which sc_init_iter
  takes no effect.
  Geometry relaxation not requested: no relaxation will be performed.
  Handling of forces: Unphysical translation and rotation will be removed from forces.
  No accuracy limit for integral partition fn. given. Defaulting to  0.1000E-14.
  No threshold value for u(r) in integrations given. Defaulting to  0.1000E-05.
  No accuracy for occupation numbers given. Defaulting to  0.1000E-12.
  No threshold value for occupation numbers given. Defaulting to  0.0000E+00.
  No accuracy for fermi level given. Defaulting to  0.1000E-19.
  Maximum # of iterations to find E_F not set. Defaulting to  200.
  Preferred method for the eigenvalue solver ('KS_method') not specified in 'control.in'.
  Defaulting to serial version, 'lapack_fast'.
  Will not use alltoall communication since running on < 1024 CPUs.
  Threshold for basis singularities not set.
  Default threshold for basis singularities:  0.1000E-04
  partition_type (choice of integration weights) for integrals was not specified.
  | Using a version of the partition function of Stratmann and coworkers ('stratmann_smoother').
  | At each grid point, the set of atoms used to build the partition table is smoothly restricted to
  | only those atoms whose free-atom density would be non-zero at that grid point.
  Partitioning for Hartree potential was not defined. Using partition_type for integrals.
  | Adjusted default value of keyword multip_moments_threshold to:       0.10000000E-11
  | This value may affect high angular momentum components of the Hartree potential in periodic systems.
  No q(lm)/r^(l+1) cutoff set for long-range Hartree potential.
  | Using default value of  0.100000E-09 .
  | Verify using the multipole_threshold keyword.
  Defaulting to new monopole extrapolation.
  Density update method: automatic selection selected.
------------------------------------------------------------


------------------------------------------------------------
          Reading geometry description geometry.in.
------------------------------------------------------------
  Input structure read successfully.
  The structure contains       13 atoms,  and a total of         48.000 electrons.

  Input geometry:
  | No unit cell requested.
  | Atomic structure:
  |       Atom                x [A]            y [A]            z [A]
  |    1: Species C             0.00000000        0.00000000        0.00000000
  |    2: Species H             1.09300000        0.00000000        0.00000000
  |    3: Species N            -0.47961000        0.00000000       -1.41207000
  |    4: Species H             0.22236000        0.45626000       -1.99593000
  |    5: Species H            -0.61408000       -0.96350000       -1.71160000
  |    6: Species C            -0.49584000        1.26211000        0.72868000
  |    7: Species H            -1.58789000        1.28919000        0.74431000
  |    8: Species H            -0.13407000        1.27425000        1.75947000
  |    9: Species H            -0.13407000        2.16087000        0.22380000
  |   10: Species C            -0.39425000       -1.28861000        0.74398000
  |   11: Species O            -0.10189000       -1.56493000        1.88303000
  |   12: Species O            -1.10210000       -2.13717000        0.06896000
  |   13: Species H            -0.37455000       -2.65479000       -0.31539000
  |

  | The smallest distance between any two atoms is         0.97210308 AA.
  |
  | The first atom of this pair is atom number                     12 .
  | The second atom of this pair is atom number                    13 .

  Number of empty states per atom not set in control.in - providing a guess from actual geometry.
  | Total number of empty states used during s.c.f. cycle:       29
  If you use a very high smearing, use empty_states (per atom!) in control.in to increase this value.

  Structure-dependent array size parameters: 
  | Maximum number of distinct radial functions  :       21
  | Maximum number of basis functions            :      119
  | Number of Kohn-Sham states (occupied + empty):       53
------------------------------------------------------------

------------------------------------------------------------
          Preparing all fixed parts of the calculation.
------------------------------------------------------------
  Determining machine precision:
    2.225073858507201E-308
  Setting up grids for atomic and cluster calculations.

  Creating wave function, potential, and density for free atoms.

  Species: H

  List of occupied orbitals and eigenvalues:
    n    l              occ      energy [Ha]    energy [eV]
    1    0           1.0000        -0.237589        -6.4651


  Species: C

  List of occupied orbitals and eigenvalues:
    n    l              occ      energy [Ha]    energy [eV]
    1    0           2.0000       -10.038835      -273.1706
    2    0           2.0000        -0.502696       -13.6791
    2    1           2.0000        -0.191971        -5.2238


  Species: N

  List of occupied orbitals and eigenvalues:
    n    l              occ      energy [Ha]    energy [eV]
    1    0           2.0000       -14.128000      -384.4424
    2    0           2.0000        -0.681077       -18.5330
    2    1           3.0000        -0.259788        -7.0692


  Species: O

  List of occupied orbitals and eigenvalues:
    n    l              occ      energy [Ha]    energy [eV]
    1    0           2.0000       -18.898188      -514.2459
    2    0           2.0000        -0.878505       -23.9053
    2    1           4.0000        -0.331779        -9.0282

  Creating fixed part of basis set: Ionic, confined, hydrogenic.
 
  H                    hydrogenic:
 
  List of hydrogenic basis orbitals: 
    n    l      effective z      eigenvalue [eV]  inner max. [A]     outer max. [A]     outer radius [A]   
    2    0         2.100000       -14.9728           0.193243           1.317208           4.583499
    2    1         3.500000       -41.6669           0.602369           0.602369           3.723403
 
 
  C                    hydrogenic:
 
  List of hydrogenic basis orbitals: 
    n    l      effective z      eigenvalue [eV]  inner max. [A]     outer max. [A]     outer radius [A]   
    2    1         1.700000        -9.7616           1.230570           1.230570           4.607917
    3    2         6.000000       -54.4224           0.792453           0.792453           3.883070
    2    0         4.900000       -81.6679           0.082559           0.562749           3.078220
 
 
  N                    hydrogenic:
 
  List of hydrogenic basis orbitals: 
    n    l      effective z      eigenvalue [eV]  inner max. [A]     outer max. [A]     outer radius [A]   
    2    1         1.800000       -10.9749           1.177451           1.177451           4.573712
    3    2         6.800000       -69.9026           0.704619           0.704619           3.538137
    3    0         5.800000       -50.8545           0.067388           1.191934           4.250239
 
 
  O                    hydrogenic:
 
  List of hydrogenic basis orbitals: 
    n    l      effective z      eigenvalue [eV]  inner max. [A]     outer max. [A]     outer radius [A]   
    2    1         1.800000       -10.9749           1.164242           1.164242           4.578029
    3    2         7.600000       -87.3180           0.624125           0.624125           3.251020
    3    0         6.400000       -61.9207           0.061167           1.081902           4.001998
 

  Adding cutoff potential to free-atom effective potential.
  Creating atomic-like basis functions for current effective potential.

  Species H                   :

  List of atomic basis orbitals and eigenvalues:
    n    l      energy [Ha]    energy [eV]    outer radius [A]
    1    0        -0.237589        -6.4651       4.527807


  Species C                   :

  List of atomic basis orbitals and eigenvalues:
    n    l      energy [Ha]    energy [eV]    outer radius [A]
    1    0       -10.038835      -273.1706       1.934409
    2    0        -0.502696       -13.6791       4.496620
    2    1        -0.191971        -5.2238       4.551928


  Species N                   :

  List of atomic basis orbitals and eigenvalues:
    n    l      energy [Ha]    energy [eV]    outer radius [A]
    1    0       -14.128000      -384.4424       1.637919
    2    0        -0.681077       -18.5330       4.463241
    2    1        -0.259788        -7.0692       4.518138


  Species O                   :

  List of atomic basis orbitals and eigenvalues:
    n    l      energy [Ha]    energy [eV]    outer radius [A]
    1    0       -18.898188      -514.2459       1.415765
    2    0        -0.878505       -23.9053       4.413171
    2    1        -0.331779        -9.0282       4.522403

  Assembling full basis from fixed parts.
  | Species H :   atomic orbital   1 s accepted.
  | Species H :    hydro orbital   2 s accepted.
  | Species H :    hydro orbital   2 p accepted.
  | Species C :   atomic orbital   1 s accepted.
  | Species C :    hydro orbital   2 s accepted.
  | Species C :   atomic orbital   2 s accepted.
  | Species C :   atomic orbital   2 p accepted.
  | Species C :    hydro orbital   2 p accepted.
  | Species C :    hydro orbital   3 d accepted.
  | Species N :   atomic orbital   1 s accepted.
  | Species N :    hydro orbital   3 s accepted.
  | Species N :   atomic orbital   2 s accepted.
  | Species N :   atomic orbital   2 p accepted.
  | Species N :    hydro orbital   2 p accepted.
  | Species N :    hydro orbital   3 d accepted.
  | Species O :   atomic orbital   1 s accepted.
  | Species O :    hydro orbital   3 s accepted.
  | Species O :   atomic orbital   2 s accepted.
  | Species O :   atomic orbital   2 p accepted.
  | Species O :    hydro orbital   2 p accepted.
  | Species O :    hydro orbital   3 d accepted.
 
  Basis size parameters after reduction:
  | Total number of radial functions:       21
  | Total number of basis functions :      119
 
  Per-task memory consumption for arrays in subroutine allocate_ext:
  |           5.250512MB.
  Testing on-site integration grid accuracy.
  |  Species  Function  <phi|h_atom|phi> (log., in eV)  <phi|h_atom|phi> (rad., in eV)
           1        1                 -6.4663192853                 -6.4651273558
           1        2                 13.7111246313                 13.7170609718
           1        3                 25.2673269279                 25.2674696378
           2        4               -273.1705927641               -273.1705631568
           2        5                -10.7109323383                -10.7107120029
           2        6                 17.4381822266                 17.4352413244
           2        7                 -5.2255326521                 -5.2270484734
           2        8                  8.6835629259                  8.6603288385
           2        9                 27.4952418996                 27.4953360207
           3       10               -384.4424306495               -384.4423701208
           3       11                 12.5842251816                 12.5842222903
           3       12                -15.7264628251                -15.7264433455
           3       13                 -7.0696854293                 -7.0701769954
           3       14                  8.8090390882                  8.7901077751
           3       15                 35.9586762123                 35.9588528632
           4       16               -514.2458688638               -514.2457643834
           4       17                 15.1795651126                 15.1795290741
           4       18                -21.5359799773                -21.5360846186
           4       19                 -9.0283069236                 -9.0284644067
           4       20                  8.3027758564                  8.2834874195
           4       21                 45.8339351984                 45.8338762259

  Preparing densities etc. for the partition functions (integrals / Hartree potential).

  Preparations completed.
  max(cpu_time)          :      0.145 s.
  Wall clock time (cpu1) :      0.154 s.
------------------------------------------------------------

------------------------------------------------------------
          Begin self-consistency loop: Initialization.

          Date     :  20200710, Time     :  144957.396
------------------------------------------------------------

  Initializing index lists of integration centers etc. from given atomic structure:
  | Number of centers in hartree potential         :        13
  | Number of centers in hartree multipole         :        13
  | Number of centers in electron density summation:        13
  | Number of centers in basis integrals           :        13
  | Number of centers in integrals                 :        13
  | Number of centers in hamiltonian               :        13
  Partitioning the integration grid into batches with parallel hashing+maxmin method.
  | Number of batches:      950
  | Maximal batch size:     138
  | Minimal batch size:      66
  | Average batch size:      73.312
  | Standard deviation of batch sizes:      18.232

  Integration load balanced across     1 MPI tasks.
  Work distribution over tasks is as follows:
  Task     0 has      69646 integration points.
  Initializing partition tables, free-atom densities, potentials, etc. across the integration grid (initialize_grid_storage).
  | initialize_grid_storage: Actual outermost partition radius vs. multipole_radius_free
  | (-- VB: in principle, multipole_radius_free should be larger, hence this output)
  | Species        1: Confinement radius =              4.999999999999999 AA, multipole_radius_free =              5.054417573612229 AA.
  | Species        1: outer_partition_radius set to              5.054417573612229 AA .
  | Species        2: Confinement radius =              4.999999999999999 AA, multipole_radius_free =              5.019602836301480 AA.
  | Species        2: outer_partition_radius set to              5.019602836301480 AA .
  | Species        3: Confinement radius =              4.999999999999999 AA, multipole_radius_free =              5.043624274424571 AA.
  | Species        3: outer_partition_radius set to              5.043624274424571 AA .
  | Species        4: Confinement radius =              4.999999999999999 AA, multipole_radius_free =              5.048384829883283 AA.
  | Species        4: outer_partition_radius set to              5.048384829883283 AA .
  | Original list of interatomic distances with          13 x         13 entries is created.
  | Net number of integration points:    69646
  | of which are non-zero points    :    59550
  Renormalizing the initial density to the exact electron count on the 3D integration grid.
  | Initial density: Formal number of electrons (from input files) :      48.0000000000
  | Integrated number of electrons on 3D grid     :      48.0000179351
  | Charge integration error                      :       0.0000179351
  | Normalization factor for density and gradient :       0.9999996264
  Obtaining max. number of non-zero basis functions in each batch (get_n_compute_maxes).
  | Maximal number of non-zero basis functions:      119 in task     0
  Selecting the method for density update.
  Loop over occupied states selected for charge density update.
  Allocating        0.050 MB for KS_eigenvector
  Integrating Hamiltonian matrix: batch-based integration.
  Time summed over all CPUs for integration: real work        0.504 s, elapsed        0.504 s
  Integrating overlap matrix.
  Time summed over all CPUs for integration: real work        0.216 s, elapsed        0.216 s

  Updating Kohn-Sham eigenvalues and eigenvectors using ELSI and the ELPA eigensolver.
  Overlap matrix is nonsingular
  | Lowest eigenvalue of overlap  :  0.48E-02
  | Highest eigenvalue of overlap :  0.61E+01
  Finished singularity check of overlap matrix
  | Time :     0.002 s
  Finished Cholesky decomposition
  | Time :     0.000 s
  Finished transformation to standard eigenproblem
  | Time :     0.000 s
  Starting LAPACK eigensolver
  Finished solving standard eigenproblem
  | Time :     0.002 s
  Finished back-transformation of eigenvectors
  | Time :     0.000 s

  Obtaining occupation numbers and chemical potential using ELSI.
  | Chemical potential (Fermi level):    -9.41418156eV
  Writing Kohn-Sham eigenvalues.

  State    Occupation    Eigenvalue [Ha]    Eigenvalue [eV]
      1       2.00000         -19.008175         -517.23877
      2       2.00000         -18.977311         -516.39890
      3       2.00000         -14.245835         -387.64890
      4       2.00000         -10.166599         -276.64724
      5       2.00000         -10.141326         -275.95951
      6       2.00000         -10.132103         -275.70855
      7       2.00000          -1.184134          -32.22193
      8       2.00000          -1.097704          -29.87004
      9       2.00000          -0.990697          -26.95824
     10       2.00000          -0.861586          -23.44494
     11       2.00000          -0.753189          -20.49532
     12       2.00000          -0.681990          -18.55790
     13       2.00000          -0.633804          -17.24668
     14       2.00000          -0.607172          -16.52198
     15       2.00000          -0.579539          -15.77005
     16       2.00000          -0.571966          -15.56399
     17       2.00000          -0.554185          -15.08014
     18       2.00000          -0.530151          -14.42614
     19       2.00000          -0.517794          -14.08988
     20       2.00000          -0.503041          -13.68845
     21       2.00000          -0.460189          -12.52239
     22       2.00000          -0.427608          -11.63582
     23       2.00000          -0.399417          -10.86868
     24       2.00000          -0.389914          -10.61011
     25       0.00000          -0.163269           -4.44278
     26       0.00000          -0.066607           -1.81247
     27       0.00000          -0.029758           -0.80975
     28       0.00000          -0.025257           -0.68727
     29       0.00000           0.002999            0.08162
     30       0.00000           0.010353            0.28173
     31       0.00000           0.020179            0.54911
     32       0.00000           0.035150            0.95647
     33       0.00000           0.046206            1.25733
     34       0.00000           0.071461            1.94455
     35       0.00000           0.080710            2.19623
     36       0.00000           0.131193            3.56996
     37       0.00000           0.155907            4.24246
     38       0.00000           0.197964            5.38689
     39       0.00000           0.215927            5.87567
     40       0.00000           0.224130            6.09890
     41       0.00000           0.252605            6.87374
     42       0.00000           0.275983            7.50988
     43       0.00000           0.288893            7.86118
     44       0.00000           0.311160            8.46710
     45       0.00000           0.333275            9.06888
     46       0.00000           0.358305            9.74998
     47       0.00000           0.370370           10.07827
     48       0.00000           0.415012           11.29304
     49       0.00000           0.423018           11.51091
     50       0.00000           0.485162           13.20192
     51       0.00000           0.500300           13.61386
     52       0.00000           0.524439           14.27071
     53       0.00000           0.571849           15.56080

  Highest occupied state (VBM) at    -10.61011250 eV
  | Occupation number:      2.00000000

  Lowest unoccupied state (CBM) at    -4.44278137 eV
  | Occupation number:      0.00000000

  Overall HOMO-LUMO gap:      6.16733113 eV.
  Calculating total energy contributions from superposition of free atom densities.

  Total energy components:
  | Sum of eigenvalues            :        -188.83086018 Ha       -5138.34914176 eV
  | XC energy correction          :         -41.78807734 Ha       -1137.11144001 eV
  | XC potential correction       :          53.71920905 Ha        1461.77405241 eV
  | Free-atom electrostatic energy:        -146.85606920 Ha       -3996.15696526 eV
  | Hartree energy correction     :           0.00000000 Ha           0.00000000 eV
  | vdW energy correction         :           0.00000000 Ha           0.00000000 eV
  | Entropy correction            :           0.00000000 Ha           0.00000000 eV
  | ---------------------------
  | Total energy                  :        -323.75579767 Ha       -8809.84349461 eV
  | Total energy, T -> 0          :        -323.75579767 Ha       -8809.84349461 eV  <-- do not rely on this value for anything but (periodic) metals
  | Electronic free energy        :        -323.75579767 Ha       -8809.84349461 eV

  Derived energy quantities:
  | Kinetic energy                :         320.49896892 Ha        8721.22067507 eV
  | Electrostatic energy          :        -602.46668925 Ha      -16393.95272967 eV
  | Energy correction for multipole
  | error in Hartree potential    :           0.00000000 Ha           0.00000000 eV
  | Sum of eigenvalues per atom                           :        -395.25762629 eV
  | Total energy (T->0) per atom                          :        -677.68026882 eV  <-- do not rely on this value for anything but (periodic) metals
  | Electronic free energy per atom                       :        -677.68026882 eV
  Initialize hartree_potential_storage
  Max. number of atoms included in rho_multipole:           13

  End scf initialization - timings             :  max(cpu_time)    wall_clock(cpu1)
  | Time for scf. initialization               :        1.155 s           1.163 s
  | Boundary condition initialization          :        0.000 s           0.000 s
  | Integration                                :        0.715 s           0.721 s
  | Solution of K.-S. eqns.                    :        0.004 s           0.004 s
  | Grid partitioning                          :        0.110 s           0.111 s
  | Preloading free-atom quantities on grid    :        0.002 s           0.002 s
  | Free-atom superposition energy             :        0.084 s           0.084 s
  | Total energy evaluation                    :        0.000 s           0.000 s

  Partial memory accounting:
  | Current value for overall tracked memory usage on task 0  :           0.165 MB
  | Peak value for overall tracked memory usage on task 0     :           0.676 MB after allocating wave
  | Largest tracked array allocation on task 0 so far         :           0.131 MB  when allocating H_times_psi
  Note:  These values currently only include a subset of arrays which are explicitly tracked.
  The "true" memory usage will be greater.
------------------------------------------------------------

------------------------------------------------------------
          Begin self-consistency iteration #    1

  Date     :  20200710, Time     :  144958.559
------------------------------------------------------------
  Evaluating new KS density.
  Integration grid: deviation in total charge (<rho> - N_e) =   0.000000E+00
  Pulay mixing of updated and previous charge densities.

  Evaluating partitioned Hartree potential by multipole expansion.
  | Analytical far-field extrapolation by fixed multipoles:
  | Hartree multipole sum: apparent total charge =  -0.899383E-04
  Summing up the Hartree potential.
  Time summed over all CPUs for potential: real work        0.281 s, elapsed        0.281 s
  | RMS charge density error from multipole expansion :   0.593042E-02

  Integrating Hamiltonian matrix: batch-based integration.
  Time summed over all CPUs for integration: real work        0.490 s, elapsed        0.490 s

  Updating Kohn-Sham eigenvalues and eigenvectors using ELSI and the ELPA eigensolver.
  Finished Cholesky decomposition
  | Time :     0.000 s
  Finished transformation to standard eigenproblem
  | Time :     0.000 s
  Starting LAPACK eigensolver
  Finished solving standard eigenproblem
  | Time :     0.002 s
  Finished back-transformation of eigenvectors
  | Time :     0.000 s

  Obtaining occupation numbers and chemical potential using ELSI.
  | Chemical potential (Fermi level):    -8.44638566eV
  Writing Kohn-Sham eigenvalues.

  State    Occupation    Eigenvalue [Ha]    Eigenvalue [eV]
      1       2.00000         -18.899485         -514.28117
      2       2.00000         -18.840842         -512.68541
      3       2.00000         -14.096252         -383.57854
      4       2.00000         -10.119727         -275.37178
      5       2.00000         -10.063020         -273.82871
      6       2.00000         -10.027774         -272.86963
      7       2.00000          -1.135707          -30.90417
      8       2.00000          -1.036327          -28.19991
      9       2.00000          -0.921635          -25.07898
     10       2.00000          -0.794418          -21.61721
     11       2.00000          -0.701054          -19.07664
     12       2.00000          -0.638659          -17.37879
     13       2.00000          -0.578734          -15.74814
     14       2.00000          -0.546674          -14.87575
     15       2.00000          -0.526503          -14.32688
     16       2.00000          -0.511740          -13.92515
     17       2.00000          -0.492170          -13.39263
     18       2.00000          -0.467268          -12.71501
     19       2.00000          -0.453110          -12.32974
     20       2.00000          -0.441375          -12.01041
     21       2.00000          -0.399962          -10.88352
     22       2.00000          -0.373296          -10.15789
     23       2.00000          -0.329910           -8.97730
     24       2.00000          -0.315322           -8.58034
     25       0.00000          -0.129513           -3.52422
     26       0.00000          -0.048556           -1.32129
     27       0.00000          -0.005906           -0.16071
     28       0.00000           0.015630            0.42531
     29       0.00000           0.033705            0.91717
     30       0.00000           0.051652            1.40551
     31       0.00000           0.060440            1.64465
     32       0.00000           0.077216            2.10116
     33       0.00000           0.088629            2.41172
     34       0.00000           0.104838            2.85278
     35       0.00000           0.119173            3.24287
     36       0.00000           0.159011            4.32690
     37       0.00000           0.178821            4.86598
     38       0.00000           0.226511            6.16368
     39       0.00000           0.254421            6.92316
     40       0.00000           0.259760            7.06843
     41       0.00000           0.289714            7.88351
     42       0.00000           0.311473            8.47561
     43       0.00000           0.320207            8.71329
     44       0.00000           0.348538            9.48420
     45       0.00000           0.371578           10.11116
     46       0.00000           0.394489           10.73459
     47       0.00000           0.412979           11.23773
     48       0.00000           0.451700           12.29139
     49       0.00000           0.462165           12.57616
     50       0.00000           0.516871           14.06477
     51       0.00000           0.540766           14.71500
     52       0.00000           0.561812           15.28767
     53       0.00000           0.603818           16.43073

  Highest occupied state (VBM) at     -8.58033768 eV
  | Occupation number:      2.00000000

  Lowest unoccupied state (CBM) at    -3.52422215 eV
  | Occupation number:      0.00000000

  Overall HOMO-LUMO gap:      5.05611553 eV.

  Total energy components:
  | Sum of eigenvalues            :        -185.42192914 Ha       -5045.58740861 eV
  | XC energy correction          :         -42.11774570 Ha       -1146.08217255 eV
  | XC potential correction       :          54.14798211 Ha        1473.44156121 eV
  | Free-atom electrostatic energy:        -146.85606920 Ha       -3996.15696526 eV
  | Hartree energy correction     :          -3.32109234 Ha         -90.37152057 eV
  | vdW energy correction         :           0.00000000 Ha           0.00000000 eV
  | Entropy correction            :          -0.00000000 Ha          -0.00000000 eV
  | ---------------------------
  | Total energy                  :        -323.56885427 Ha       -8804.75650578 eV
  | Total energy, T -> 0          :        -323.56885427 Ha       -8804.75650578 eV  <-- do not rely on this value for anything but (periodic) metals
  | Electronic free energy        :        -323.56885427 Ha       -8804.75650578 eV

  Derived energy quantities:
  | Kinetic energy                :         322.30004368 Ha        8770.23041281 eV
  | Electrostatic energy          :        -603.75115224 Ha      -16428.90474604 eV
  | Energy correction for multipole
  | error in Hartree potential    :           0.01210989 Ha           0.32952677 eV
  | Sum of eigenvalues per atom                           :        -388.12210835 eV
  | Total energy (T->0) per atom                          :        -677.28896198 eV  <-- do not rely on this value for anything but (periodic) metals
  | Electronic free energy per atom                       :        -677.28896198 eV

  Self-consistency convergence accuracy:
  | Change of charge density      :  0.5896E+00
  | Change of sum of eigenvalues  :  0.9276E+02 eV
  | Change of total energy        :  0.5087E+01 eV

  End self-consistency iteration #     1       :  max(cpu_time)    wall_clock(cpu1)
  | Time for this iteration                    :        1.180 s           1.182 s
  | Charge density update                      :        0.392 s           0.393 s
  | Density mixing                             :        0.005 s           0.005 s
  | Hartree multipole update                   :        0.009 s           0.009 s
  | Hartree multipole summation                :        0.282 s           0.282 s
  | Integration                                :        0.490 s           0.490 s
  | Solution of K.-S. eqns.                    :        0.002 s           0.002 s
  | Total energy evaluation                    :        0.000 s           0.000 s

  Partial memory accounting:
  | Current value for overall tracked memory usage on task 0  :           0.165 MB
  | Peak value for overall tracked memory usage on task 0     :           0.691 MB after allocating gradient_basis_wave
  | Largest tracked array allocation on task 0 so far         :           0.394 MB  when allocating gradient_basis_wave
  Note:  These values currently only include a subset of arrays which are explicitly tracked.
  The "true" memory usage will be greater.
------------------------------------------------------------

------------------------------------------------------------
          Begin self-consistency iteration #    2

  Date     :  20200710, Time     :  144959.742
------------------------------------------------------------
  Evaluating new KS density.
  Integration grid: deviation in total charge (<rho> - N_e) =  -7.105427E-15
  Pulay mixing of updated and previous charge densities.

  Evaluating partitioned Hartree potential by multipole expansion.
  | Analytical far-field extrapolation by fixed multipoles:
  | Hartree multipole sum: apparent total charge =  -0.225253E-03
  Summing up the Hartree potential.
  Time summed over all CPUs for potential: real work        0.280 s, elapsed        0.280 s
  | RMS charge density error from multipole expansion :   0.139623E-01

  Integrating Hamiltonian matrix: batch-based integration.
  Time summed over all CPUs for integration: real work        0.489 s, elapsed        0.489 s

  Updating Kohn-Sham eigenvalues and eigenvectors using ELSI and the ELPA eigensolver.
  Finished Cholesky decomposition
  | Time :     0.000 s
  Finished transformation to standard eigenproblem
  | Time :     0.000 s
  Starting LAPACK eigensolver
  Finished solving standard eigenproblem
  | Time :     0.001 s
  Finished back-transformation of eigenvectors
  | Time :     0.000 s

  Obtaining occupation numbers and chemical potential using ELSI.
  | Chemical potential (Fermi level):    -3.20547238eV
  Highest occupied state (VBM) at     -6.56137311 eV
  | Occupation number:      2.00000000

  Lowest unoccupied state (CBM) at    -2.36870869 eV
  | Occupation number:      0.00000000

  Overall HOMO-LUMO gap:      4.19266442 eV.

  Checking to see if s.c.f. parameters should be adjusted.

  Total energy components:
  | Sum of eigenvalues            :        -181.89310187 Ha       -4949.56313299 eV
  | XC energy correction          :         -42.47285058 Ha       -1155.74506802 eV
  | XC potential correction       :          54.60827400 Ha        1485.96674061 eV
  | Free-atom electrostatic energy:        -146.85606920 Ha       -3996.15696526 eV
  | Hartree energy correction     :          -6.87545007 Ha        -187.09051538 eV
  | vdW energy correction         :           0.00000000 Ha           0.00000000 eV
  | Entropy correction            :           0.00000000 Ha           0.00000000 eV
  | ---------------------------
  | Total energy                  :        -323.48919773 Ha       -8802.58894103 eV
  | Total energy, T -> 0          :        -323.48919773 Ha       -8802.58894103 eV  <-- do not rely on this value for anything but (periodic) metals
  | Electronic free energy        :        -323.48919773 Ha       -8802.58894103 eV

  Derived energy quantities:
  | Kinetic energy                :         323.59952140 Ha        8805.59100082 eV
  | Electrostatic energy          :        -604.61586855 Ha      -16452.43487384 eV
  | Energy correction for multipole
  | error in Hartree potential    :           0.02647927 Ha           0.72053757 eV
  | Sum of eigenvalues per atom                           :        -380.73562561 eV
  | Total energy (T->0) per atom                          :        -677.12222623 eV  <-- do not rely on this value for anything but (periodic) metals
  | Electronic free energy per atom                       :        -677.12222623 eV

  Self-consistency convergence accuracy:
  | Change of charge density      :  0.3686E+00
  | Change of sum of eigenvalues  :  0.9602E+02 eV
  | Change of total energy        :  0.2168E+01 eV

  End self-consistency iteration #     2       :  max(cpu_time)    wall_clock(cpu1)
  | Time for this iteration                    :        1.171 s           1.171 s
  | Charge density update                      :        0.384 s           0.383 s
  | Density mixing                             :        0.007 s           0.007 s
  | Hartree multipole update                   :        0.009 s           0.009 s
  | Hartree multipole summation                :        0.281 s           0.281 s
  | Integration                                :        0.489 s           0.489 s
  | Solution of K.-S. eqns.                    :        0.002 s           0.002 s
  | Total energy evaluation                    :        0.000 s           0.000 s

  Partial memory accounting:
  | Current value for overall tracked memory usage on task 0  :           0.166 MB
  | Peak value for overall tracked memory usage on task 0     :           0.691 MB after allocating gradient_basis_wave
  | Largest tracked array allocation on task 0 so far         :           0.394 MB  when allocating gradient_basis_wave
  Note:  These values currently only include a subset of arrays which are explicitly tracked.
  The "true" memory usage will be greater.
------------------------------------------------------------

------------------------------------------------------------
          Begin self-consistency iteration #    3

  Date     :  20200710, Time     :  145000.914
------------------------------------------------------------
  Evaluating new KS density.
  Integration grid: deviation in total charge (<rho> - N_e) =  -7.105427E-15
  Pulay mixing of updated and previous charge densities.

  Evaluating partitioned Hartree potential by multipole expansion.
  | Analytical far-field extrapolation by fixed multipoles:
  | Hartree multipole sum: apparent total charge =  -0.320687E-03
  Summing up the Hartree potential.
  Time summed over all CPUs for potential: real work        0.281 s, elapsed        0.281 s
  | RMS charge density error from multipole expansion :   0.219602E-01

  Integrating Hamiltonian matrix: batch-based integration.
  Time summed over all CPUs for integration: real work        0.489 s, elapsed        0.489 s

  Updating Kohn-Sham eigenvalues and eigenvectors using ELSI and the ELPA eigensolver.
  Finished Cholesky decomposition
  | Time :     0.000 s
  Finished transformation to standard eigenproblem
  | Time :     0.000 s
  Starting LAPACK eigensolver
  Finished solving standard eigenproblem
  | Time :     0.001 s
  Finished back-transformation of eigenvectors
  | Time :     0.000 s

  Obtaining occupation numbers and chemical potential using ELSI.
  | Chemical potential (Fermi level):    -2.67289537eV
  Highest occupied state (VBM) at     -5.87473297 eV
  | Occupation number:      2.00000000

  Lowest unoccupied state (CBM) at    -1.71570843 eV
  | Occupation number:      0.00000000

  Overall HOMO-LUMO gap:      4.15902454 eV.

  Total energy components:
  | Sum of eigenvalues            :        -180.58066479 Ha       -4913.84990286 eV
  | XC energy correction          :         -42.62623259 Ha       -1159.91880487 eV
  | XC potential correction       :          54.80393489 Ha        1491.29094443 eV
  | Free-atom electrostatic energy:        -146.85606920 Ha       -3996.15696526 eV
  | Hartree energy correction     :          -8.21650722 Ha        -223.58253728 eV
  | vdW energy correction         :           0.00000000 Ha           0.00000000 eV
  | Entropy correction            :           0.00000000 Ha           0.00000000 eV
  | ---------------------------
  | Total energy                  :        -323.47553892 Ha       -8802.21726583 eV
  | Total energy, T -> 0          :        -323.47553892 Ha       -8802.21726583 eV  <-- do not rely on this value for anything but (periodic) metals
  | Electronic free energy        :        -323.47553892 Ha       -8802.21726583 eV

  Derived energy quantities:
  | Kinetic energy                :         323.21183651 Ha        8795.04155820 eV
  | Electrostatic energy          :        -604.06114283 Ha      -16437.34001916 eV
  | Energy correction for multipole
  | error in Hartree potential    :           0.03752024 Ha           1.02097760 eV
  | Sum of eigenvalues per atom                           :        -377.98845407 eV
  | Total energy (T->0) per atom                          :        -677.09363583 eV  <-- do not rely on this value for anything but (periodic) metals
  | Electronic free energy per atom                       :        -677.09363583 eV

  Self-consistency convergence accuracy:
  | Change of charge density      :  0.2082E+00
  | Change of sum of eigenvalues  :  0.3571E+02 eV
  | Change of total energy        :  0.3717E+00 eV

  End self-consistency iteration #     3       :  max(cpu_time)    wall_clock(cpu1)
  | Time for this iteration                    :        1.174 s           1.174 s
  | Charge density update                      :        0.384 s           0.384 s
  | Density mixing                             :        0.008 s           0.008 s
  | Hartree multipole update                   :        0.009 s           0.009 s
  | Hartree multipole summation                :        0.281 s           0.282 s
  | Integration                                :        0.489 s           0.489 s
  | Solution of K.-S. eqns.                    :        0.002 s           0.002 s
  | Total energy evaluation                    :        0.000 s           0.000 s

  Partial memory accounting:
  | Current value for overall tracked memory usage on task 0  :           0.166 MB
  | Peak value for overall tracked memory usage on task 0     :           0.692 MB after allocating gradient_basis_wave
  | Largest tracked array allocation on task 0 so far         :           0.394 MB  when allocating gradient_basis_wave
  Note:  These values currently only include a subset of arrays which are explicitly tracked.
  The "true" memory usage will be greater.
------------------------------------------------------------

------------------------------------------------------------
          Begin self-consistency iteration #    4

  Date     :  20200710, Time     :  145002.091
------------------------------------------------------------
  Evaluating new KS density.
  Integration grid: deviation in total charge (<rho> - N_e) =   2.842171E-14
  Pulay mixing of updated and previous charge densities.

  Evaluating partitioned Hartree potential by multipole expansion.
  | Analytical far-field extrapolation by fixed multipoles:
  | Hartree multipole sum: apparent total charge =  -0.352988E-03
  Summing up the Hartree potential.
  Time summed over all CPUs for potential: real work        0.281 s, elapsed        0.281 s
  | RMS charge density error from multipole expansion :   0.254124E-01

  Integrating Hamiltonian matrix: batch-based integration.
  Time summed over all CPUs for integration: real work        0.490 s, elapsed        0.490 s

  Updating Kohn-Sham eigenvalues and eigenvectors using ELSI and the ELPA eigensolver.
  Finished Cholesky decomposition
  | Time :     0.000 s
  Finished transformation to standard eigenproblem
  | Time :     0.000 s
  Starting LAPACK eigensolver
  Finished solving standard eigenproblem
  | Time :     0.002 s
  Finished back-transformation of eigenvectors
  | Time :     0.000 s

  Obtaining occupation numbers and chemical potential using ELSI.
  | Chemical potential (Fermi level):    -2.57285000eV
  Highest occupied state (VBM) at     -5.71512785 eV
  | Occupation number:      2.00000000

  Lowest unoccupied state (CBM) at    -1.61435122 eV
  | Occupation number:      0.00000000

  Overall HOMO-LUMO gap:      4.10077663 eV.

  Total energy components:
  | Sum of eigenvalues            :        -180.42031694 Ha       -4909.48661580 eV
  | XC energy correction          :         -42.66564992 Ha       -1160.99140497 eV
  | XC potential correction       :          54.85358885 Ha        1492.64209737 eV
  | Free-atom electrostatic energy:        -146.85606920 Ha       -3996.15696526 eV
  | Hartree energy correction     :          -8.38608647 Ha        -228.19702332 eV
  | vdW energy correction         :           0.00000000 Ha           0.00000000 eV
  | Entropy correction            :           0.00000000 Ha           0.00000000 eV
  | ---------------------------
  | Total energy                  :        -323.47453368 Ha       -8802.18991198 eV
  | Total energy, T -> 0          :        -323.47453368 Ha       -8802.18991198 eV  <-- do not rely on this value for anything but (periodic) metals
  | Electronic free energy        :        -323.47453368 Ha       -8802.18991198 eV

  Derived energy quantities:
  | Kinetic energy                :         322.83360495 Ha        8784.74935374 eV
  | Electrostatic energy          :        -603.64248871 Ha      -16425.94786075 eV
  | Energy correction for multipole
  | error in Hartree potential    :           0.04181142 Ha           1.13774674 eV
  | Sum of eigenvalues per atom                           :        -377.65281660 eV
  | Total energy (T->0) per atom                          :        -677.09153169 eV  <-- do not rely on this value for anything but (periodic) metals
  | Electronic free energy per atom                       :        -677.09153169 eV

  Self-consistency convergence accuracy:
  | Change of charge density      :  0.6753E-01
  | Change of sum of eigenvalues  :  0.4363E+01 eV
  | Change of total energy        :  0.2735E-01 eV

  End self-consistency iteration #     4       :  max(cpu_time)    wall_clock(cpu1)
  | Time for this iteration                    :        1.176 s           1.177 s
  | Charge density update                      :        0.384 s           0.385 s
  | Density mixing                             :        0.009 s           0.009 s
  | Hartree multipole update                   :        0.009 s           0.009 s
  | Hartree multipole summation                :        0.282 s           0.281 s
  | Integration                                :        0.490 s           0.490 s
  | Solution of K.-S. eqns.                    :        0.002 s           0.002 s
  | Total energy evaluation                    :        0.000 s           0.000 s

  Partial memory accounting:
  | Current value for overall tracked memory usage on task 0  :           0.166 MB
  | Peak value for overall tracked memory usage on task 0     :           0.692 MB after allocating gradient_basis_wave
  | Largest tracked array allocation on task 0 so far         :           0.394 MB  when allocating gradient_basis_wave
  Note:  These values currently only include a subset of arrays which are explicitly tracked.
  The "true" memory usage will be greater.
------------------------------------------------------------

------------------------------------------------------------
          Begin self-consistency iteration #    5

  Date     :  20200710, Time     :  145003.280
------------------------------------------------------------
  Evaluating new KS density.
  Integration grid: deviation in total charge (<rho> - N_e) =  -3.552714E-14
  Pulay mixing of updated and previous charge densities.

  Evaluating partitioned Hartree potential by multipole expansion.
  | Analytical far-field extrapolation by fixed multipoles:
  | Hartree multipole sum: apparent total charge =  -0.346897E-03
  Summing up the Hartree potential.
  Time summed over all CPUs for potential: real work        0.281 s, elapsed        0.281 s
  | RMS charge density error from multipole expansion :   0.252208E-01

  Integrating Hamiltonian matrix: batch-based integration.
  Time summed over all CPUs for integration: real work        0.490 s, elapsed        0.490 s

  Updating Kohn-Sham eigenvalues and eigenvectors using ELSI and the ELPA eigensolver.
  Finished Cholesky decomposition
  | Time :     0.000 s
  Finished transformation to standard eigenproblem
  | Time :     0.000 s
  Starting LAPACK eigensolver
  Finished solving standard eigenproblem
  | Time :     0.001 s
  Finished back-transformation of eigenvectors
  | Time :     0.000 s

  Obtaining occupation numbers and chemical potential using ELSI.
  | Chemical potential (Fermi level):    -2.62550101eV
  Highest occupied state (VBM) at     -5.79595535 eV
  | Occupation number:      2.00000000

  Lowest unoccupied state (CBM) at    -1.71192095 eV
  | Occupation number:      0.00000000

  Overall HOMO-LUMO gap:      4.08403439 eV.

  Total energy components:
  | Sum of eigenvalues            :        -180.64118159 Ha       -4915.49664866 eV
  | XC energy correction          :         -42.63897061 Ha       -1160.26542394 eV
  | XC potential correction       :          54.81895177 Ha        1491.69957443 eV
  | Free-atom electrostatic energy:        -146.85606920 Ha       -3996.15696526 eV
  | Hartree energy correction     :          -8.15697079 Ha        -221.96246840 eV
  | vdW energy correction         :           0.00000000 Ha           0.00000000 eV
  | Entropy correction            :           0.00000000 Ha           0.00000000 eV
  | ---------------------------
  | Total energy                  :        -323.47424042 Ha       -8802.18193182 eV
  | Total energy, T -> 0          :        -323.47424042 Ha       -8802.18193182 eV  <-- do not rely on this value for anything but (periodic) metals
  | Electronic free energy        :        -323.47424042 Ha       -8802.18193182 eV

  Derived energy quantities:
  | Kinetic energy                :         322.69457652 Ha        8780.96619780 eV
  | Electrostatic energy          :        -603.52984633 Ha      -16422.88270568 eV
  | Energy correction for multipole
  | error in Hartree potential    :           0.04119404 Ha           1.12094694 eV
  | Sum of eigenvalues per atom                           :        -378.11512682 eV
  | Total energy (T->0) per atom                          :        -677.09091783 eV  <-- do not rely on this value for anything but (periodic) metals
  | Electronic free energy per atom                       :        -677.09091783 eV

  Self-consistency convergence accuracy:
  | Change of charge density      :  0.2078E-01
  | Change of sum of eigenvalues  : -0.6010E+01 eV
  | Change of total energy        :  0.7980E-02 eV

  End self-consistency iteration #     5       :  max(cpu_time)    wall_clock(cpu1)
  | Time for this iteration                    :        1.177 s           1.178 s
  | Charge density update                      :        0.384 s           0.385 s
  | Density mixing                             :        0.011 s           0.011 s
  | Hartree multipole update                   :        0.009 s           0.008 s
  | Hartree multipole summation                :        0.281 s           0.282 s
  | Integration                                :        0.490 s           0.490 s
  | Solution of K.-S. eqns.                    :        0.002 s           0.002 s
  | Total energy evaluation                    :        0.000 s           0.000 s

  Partial memory accounting:
  | Current value for overall tracked memory usage on task 0  :           0.166 MB
  | Peak value for overall tracked memory usage on task 0     :           0.692 MB after allocating gradient_basis_wave
  | Largest tracked array allocation on task 0 so far         :           0.394 MB  when allocating gradient_basis_wave
  Note:  These values currently only include a subset of arrays which are explicitly tracked.
  The "true" memory usage will be greater.
------------------------------------------------------------

------------------------------------------------------------
          Begin self-consistency iteration #    6

  Date     :  20200710, Time     :  145004.459
------------------------------------------------------------
  Evaluating new KS density.
  Integration grid: deviation in total charge (<rho> - N_e) =   0.000000E+00
  Pulay mixing of updated and previous charge densities.

  Evaluating partitioned Hartree potential by multipole expansion.
  | Analytical far-field extrapolation by fixed multipoles:
  | Hartree multipole sum: apparent total charge =  -0.351599E-03
  Summing up the Hartree potential.
  Time summed over all CPUs for potential: real work        0.281 s, elapsed        0.281 s
  | RMS charge density error from multipole expansion :   0.257173E-01

  Integrating Hamiltonian matrix: batch-based integration.
  Time summed over all CPUs for integration: real work        0.489 s, elapsed        0.489 s

  Updating Kohn-Sham eigenvalues and eigenvectors using ELSI and the ELPA eigensolver.
  Finished Cholesky decomposition
  | Time :     0.000 s
  Finished transformation to standard eigenproblem
  | Time :     0.000 s
  Starting LAPACK eigensolver
  Finished solving standard eigenproblem
  | Time :     0.001 s
  Finished back-transformation of eigenvectors
  | Time :     0.000 s

  Obtaining occupation numbers and chemical potential using ELSI.
  | Chemical potential (Fermi level):    -2.60712582eV
  Highest occupied state (VBM) at     -5.74667319 eV
  | Occupation number:      2.00000000

  Lowest unoccupied state (CBM) at    -1.71225030 eV
  | Occupation number:      0.00000000

  Overall HOMO-LUMO gap:      4.03442289 eV.

  Total energy components:
  | Sum of eigenvalues            :        -180.60961444 Ha       -4914.63766284 eV
  | XC energy correction          :         -42.64191852 Ha       -1160.34564073 eV
  | XC potential correction       :          54.82274923 Ha        1491.80290865 eV
  | Free-atom electrostatic energy:        -146.85606920 Ha       -3996.15696526 eV
  | Hartree energy correction     :          -8.18934540 Ha        -222.84342654 eV
  | vdW energy correction         :           0.00000000 Ha           0.00000000 eV
  | Entropy correction            :           0.00000000 Ha           0.00000000 eV
  | ---------------------------
  | Total energy                  :        -323.47419833 Ha       -8802.18078672 eV
  | Total energy, T -> 0          :        -323.47419833 Ha       -8802.18078672 eV  <-- do not rely on this value for anything but (periodic) metals
  | Electronic free energy        :        -323.47419833 Ha       -8802.18078672 eV

  Derived energy quantities:
  | Kinetic energy                :         322.62853195 Ha        8779.16903346 eV
  | Electrostatic energy          :        -603.46081176 Ha      -16421.00417945 eV
  | Energy correction for multipole
  | error in Hartree potential    :           0.04170393 Ha           1.13482154 eV
  | Sum of eigenvalues per atom                           :        -378.04905099 eV
  | Total energy (T->0) per atom                          :        -677.09082975 eV  <-- do not rely on this value for anything but (periodic) metals
  | Electronic free energy per atom                       :        -677.09082975 eV

  Self-consistency convergence accuracy:
  | Change of charge density      :  0.1087E-01
  | Change of sum of eigenvalues  :  0.8590E+00 eV
  | Change of total energy        :  0.1145E-02 eV

  End self-consistency iteration #     6       :  max(cpu_time)    wall_clock(cpu1)
  | Time for this iteration                    :        1.178 s           1.178 s
  | Charge density update                      :        0.384 s           0.384 s
  | Density mixing                             :        0.012 s           0.012 s
  | Hartree multipole update                   :        0.009 s           0.009 s
  | Hartree multipole summation                :        0.281 s           0.282 s
  | Integration                                :        0.489 s           0.489 s
  | Solution of K.-S. eqns.                    :        0.002 s           0.002 s
  | Total energy evaluation                    :        0.000 s           0.000 s

  Partial memory accounting:
  | Current value for overall tracked memory usage on task 0  :           0.166 MB
  | Peak value for overall tracked memory usage on task 0     :           0.692 MB after allocating gradient_basis_wave
  | Largest tracked array allocation on task 0 so far         :           0.394 MB  when allocating gradient_basis_wave
  Note:  These values currently only include a subset of arrays which are explicitly tracked.
  The "true" memory usage will be greater.
------------------------------------------------------------

------------------------------------------------------------
          Begin self-consistency iteration #    7

  Date     :  20200710, Time     :  145005.638
------------------------------------------------------------
  Evaluating new KS density.
  Integration grid: deviation in total charge (<rho> - N_e) =   2.131628E-14
  Pulay mixing of updated and previous charge densities.

  Evaluating partitioned Hartree potential by multipole expansion.
  | Analytical far-field extrapolation by fixed multipoles:
  | Hartree multipole sum: apparent total charge =  -0.352074E-03
  Summing up the Hartree potential.
  Time summed over all CPUs for potential: real work        0.281 s, elapsed        0.281 s
  | RMS charge density error from multipole expansion :   0.258040E-01

  Integrating Hamiltonian matrix: batch-based integration.
  Time summed over all CPUs for integration: real work        0.490 s, elapsed        0.490 s

  Updating Kohn-Sham eigenvalues and eigenvectors using ELSI and the ELPA eigensolver.
  Finished Cholesky decomposition
  | Time :     0.000 s
  Finished transformation to standard eigenproblem
  | Time :     0.000 s
  Starting LAPACK eigensolver
  Finished solving standard eigenproblem
  | Time :     0.001 s
  Finished back-transformation of eigenvectors
  | Time :     0.000 s

[...]
  |   Hirshfeld dipole moment :      0.05581136
  |   Hirshfeld second moments:      0.01609090      -0.03260901      -0.01935607
  |                                 -0.03260901      -0.01765811       0.00920438
  |                                 -0.01935607       0.00920438      -0.01320480
  ----------------------------------------------------------------------
  | Atom    12: O
  |   Hirshfeld charge        :     -0.15555298
  |   Free atom volume        :     23.61338643
  |   Hirshfeld volume        :     20.77886197
  |   Hirshfeld dipole vector :      0.03339956       0.02466411      -0.00060437
  |   Hirshfeld dipole moment :      0.04152366
  |   Hirshfeld second moments:      0.05677308      -0.02697621      -0.01580989
  |                                 -0.02697621       0.07559966       0.03464547
  |                                 -0.01580989       0.03464547       0.05112872
  ----------------------------------------------------------------------
  | Atom    13: H
  |   Hirshfeld charge        :      0.18770756
  |   Free atom volume        :      9.95071624
  |   Hirshfeld volume        :      5.96655847
  |   Hirshfeld dipole vector :      0.08893786      -0.07319195      -0.05788341
  |   Hirshfeld dipole moment :      0.12890886
  |   Hirshfeld second moments:      0.12142442      -0.00206958       0.00262053
  |                                 -0.00206958       0.12428138       0.00647793
  |                                  0.00262053       0.00647793       0.11510395
  ----------------------------------------------------------------------


  Total energy components:
  | Sum of eigenvalues            :        -180.61195642 Ha       -4914.70139136 eV
  | XC energy correction          :         -42.63839034 Ha       -1160.24963398 eV
  | XC potential correction       :          54.81826706 Ha        1491.68094264 eV
  | Free-atom electrostatic energy:        -146.85606920 Ha       -3996.15696526 eV
  | Hartree energy correction     :          -8.18602639 Ha        -222.75311162 eV
  | vdW energy correction         :          -0.00317650 Ha          -0.08643706 eV
  | Entropy correction            :           0.00000000 Ha           0.00000000 eV
  | ---------------------------
  | Total energy                  :        -323.47735179 Ha       -8802.26659665 eV
  | Total energy, T -> 0          :        -323.47735179 Ha       -8802.26659665 eV  <-- do not rely on this value for anything but (periodic) metals
  | Electronic free energy        :        -323.47735179 Ha       -8802.26659665 eV

  Derived energy quantities:
  | Kinetic energy                :         322.59239442 Ha        8778.18568145 eV
  | Electrostatic energy          :        -603.42817937 Ha      -16420.11620706 eV
  | Energy correction for multipole
  | error in Hartree potential    :           0.04173314 Ha           1.13561649 eV
  | Sum of eigenvalues per atom                           :        -378.05395318 eV
  | Total energy (T->0) per atom                          :        -677.09743051 eV  <-- do not rely on this value for anything but (periodic) metals
  | Electronic free energy per atom                       :        -677.09743051 eV

  atomic forces [eV/Ang]:
  -----------------------
  atom #    1
   Hellmann-Feynman              :  0.669230E+00  0.294908E+00  0.105471E+01
   Ionic forces                  :  0.000000E+00  0.000000E+00  0.000000E+00
   Multipole                     :  0.237610E+00  0.171926E+00 -0.313881E+00
   Pulay + GGA                   : -0.123090E+01 -0.194705E+00 -0.120085E+01
   Van der Waals                 :  0.241107E-02  0.691314E-02 -0.598081E-03
   ----------------------------------------------------------------
   Total forces(   1)            : -0.321646E+00  0.279041E+00 -0.460617E+00
  atom #    2
   Hellmann-Feynman              :  0.427852E+00 -0.186839E-01  0.323319E+00
   Ionic forces                  :  0.000000E+00  0.000000E+00  0.000000E+00
   Multipole                     :  0.149255E+00  0.165886E-01 -0.251740E-01
   Pulay + GGA                   : -0.117938E+00  0.180405E-01  0.254822E-01
   Van der Waals                 :  0.789683E-02 -0.496717E-02 -0.258947E-02
   ----------------------------------------------------------------
   Total forces(   2)            :  0.467066E+00  0.109780E-01  0.321038E+00
  atom #    3
   Hellmann-Feynman              : -0.107395E+02  0.558716E+01  0.484616E+00
   Ionic forces                  :  0.000000E+00  0.000000E+00  0.000000E+00
   Multipole                     : -0.641523E-01  0.135444E+00 -0.102165E+01
   Pulay + GGA                   :  0.107605E+02 -0.558395E+01  0.117505E+01
   Van der Waals                 :  0.328661E-02 -0.683277E-03 -0.100853E-01
   ----------------------------------------------------------------
   Total forces(   3)            : -0.398605E-01  0.137973E+00  0.627937E+00
  atom #    4
   Hellmann-Feynman              :  0.113870E+00 -0.968257E-01 -0.121441E+00
   Ionic forces                  :  0.000000E+00  0.000000E+00  0.000000E+00
   Multipole                     :  0.287619E-01 -0.253466E-02 -0.105219E+00
   Pulay + GGA                   : -0.197004E+00 -0.350565E-01  0.114979E+00
   Van der Waals                 : -0.241911E-02 -0.438788E-02  0.112910E-02
   ----------------------------------------------------------------
   Total forces(   4)            : -0.567914E-01 -0.138805E+00 -0.110552E+00
  atom #    5
   Hellmann-Feynman              :  0.126288E+00 -0.103228E+00 -0.279397E+00
   Ionic forces                  :  0.000000E+00  0.000000E+00  0.000000E+00
   Multipole                     : -0.571103E-02 -0.732309E-01 -0.940544E-01
   Pulay + GGA                   : -0.123790E+00  0.217854E+00  0.628225E-01
   Van der Waals                 : -0.342987E-02  0.467924E-02 -0.100014E-02
   ----------------------------------------------------------------
   Total forces(   5)            : -0.664262E-02  0.460738E-01 -0.311629E+00
  atom #    6
   Hellmann-Feynman              : -0.188975E+00 -0.495885E+00  0.563448E+00
   Ionic forces                  :  0.000000E+00  0.000000E+00  0.000000E+00
   Multipole                     : -0.106232E+00  0.644597E+00  0.241423E+00
   Pulay + GGA                   :  0.417745E+00 -0.485351E+00 -0.661077E+00
   Van der Waals                 : -0.446824E-02  0.512676E-02 -0.438996E-03
   ----------------------------------------------------------------
   Total forces(   6)            :  0.118069E+00 -0.331513E+00  0.143354E+00
  atom #    7
   Hellmann-Feynman              : -0.186430E+00 -0.574715E-01 -0.757356E-01
   Ionic forces                  :  0.000000E+00  0.000000E+00  0.000000E+00
   Multipole                     : -0.123004E+00  0.498011E-01  0.290754E-01
   Pulay + GGA                   :  0.122589E+00 -0.543932E-02 -0.328594E-01
   Van der Waals                 : -0.930786E-03  0.161123E-02  0.284358E-02
   ----------------------------------------------------------------
   Total forces(   7)            : -0.187776E+00 -0.114985E-01 -0.766761E-01
  atom #    8
   Hellmann-Feynman              :  0.121700E+00 -0.292490E-01  0.143009E+00
   Ionic forces                  :  0.000000E+00  0.000000E+00  0.000000E+00
   Multipole                     :  0.124673E-01  0.606128E-01  0.124632E+00
   Pulay + GGA                   : -0.421299E-01 -0.352112E-01 -0.847206E-01
   Van der Waals                 : -0.245207E-02  0.115390E-01  0.149556E-02
   ----------------------------------------------------------------
   Total forces(   8)            :  0.895857E-01  0.769155E-02  0.184415E+00
  atom #    9
   Hellmann-Feynman              :  0.103203E+00  0.507212E-01 -0.182127E+00
   Ionic forces                  :  0.000000E+00  0.000000E+00  0.000000E+00
   Multipole                     :  0.153062E-01  0.125490E+00 -0.114365E-01
   Pulay + GGA                   : -0.582650E-01 -0.763274E-01  0.528576E-01
   Van der Waals                 : -0.181697E-02  0.322447E-02  0.350159E-02
   ----------------------------------------------------------------
   Total forces(   9)            :  0.584271E-01  0.103109E+00 -0.137204E+00
  atom #   10
   Hellmann-Feynman              :  0.351647E+01  0.541696E+01  0.198431E+01
   Ionic forces                  :  0.000000E+00  0.000000E+00  0.000000E+00
   Multipole                     :  0.995191E-01 -0.593663E-01  0.298597E+00
   Pulay + GGA                   : -0.233676E+01 -0.259860E+01  0.229608E-02
   Van der Waals                 :  0.351827E-02 -0.106435E-01 -0.180806E-02
   ----------------------------------------------------------------
   Total forces(  10)            :  0.128275E+01  0.274834E+01  0.228340E+01
  atom #   11
   Hellmann-Feynman              :  0.407122E+01 -0.234201E+01  0.136405E+02
   Ionic forces                  :  0.000000E+00  0.000000E+00  0.000000E+00
   Multipole                     :  0.539394E-01 -0.640025E+00  0.766453E+00
   Pulay + GGA                   : -0.341869E+01  0.376080E+01 -0.134701E+02
   Van der Waals                 : -0.314388E-02 -0.107120E-01  0.390642E-02
   ----------------------------------------------------------------
   Total forces(  11)            :  0.703326E+00  0.768058E+00  0.940683E+00
  atom #   12
   Hellmann-Feynman              : -0.148510E+02 -0.320858E+01 -0.396369E+01
   Ionic forces                  :  0.000000E+00  0.000000E+00  0.000000E+00
   Multipole                     : -0.106021E+01 -0.124442E+01 -0.237495E+00
   Pulay + GGA                   :  0.142651E+02  0.188044E+01  0.136220E+01
   Van der Waals                 :  0.916776E-03  0.664203E-02  0.399213E-02
   ----------------------------------------------------------------
   Total forces(  12)            : -0.164523E+01 -0.256591E+01 -0.283499E+01
  atom #   13
   Hellmann-Feynman              : -0.168802E+00 -0.117165E+01 -0.764025E+00
   Ionic forces                  :  0.000000E+00  0.000000E+00  0.000000E+00
   Multipole                     :  0.498291E-01 -0.381111E-01 -0.130729E-01
   Pulay + GGA                   : -0.340453E+00  0.160451E+00  0.202803E+00
   Van der Waals                 :  0.631372E-03 -0.834205E-02 -0.348363E-03
   ----------------------------------------------------------------
   Total forces(  13)            : -0.458795E+00 -0.105765E+01 -0.574644E+00

  Timings for VdW correction (Tkatchenko-Scheffler 2009 or later):
  | CPU time:        0.089 s, Wall clock time:        0.090 s.
  Removing unitary transformations (pure translations, rotations) from forces on atoms.
  Atomic forces before filtering:
  | Net force on center of mass :   0.247469E-02 -0.411399E-02 -0.549340E-02 eV/A
  | Net torque on center of mass:   0.171811E-02  0.507899E-02  0.661268E-02 eV
  Atomic forces after filtering:
  | Net force on center of mass :   0.178406E-15  0.178406E-15  0.000000E+00 eV/A
  | Net torque on center of mass:   0.944085E-16 -0.584152E-15  0.188817E-15 eV

  Energy and forces in a compact form:
  | Total energy uncorrected      :         -0.880226659664894E+04 eV
  | Total energy corrected        :         -0.880226659664894E+04 eV  <-- do not rely on this value for anything but (periodic) metals
  | Electronic free energy        :         -0.880226659664894E+04 eV
  Total atomic forces (unitary forces cleaned) [eV/Ang]:
  |   1         -0.321783825114433E+00          0.279282457215223E+00         -0.460121215656542E+00
  |   2          0.466927850436086E+00          0.109664100416487E-01          0.321811223770841E+00
  |   3         -0.396396109563401E-01          0.138267331181038E+00          0.628311270717124E+00
  |   4         -0.563166239199774E-01         -0.138696534692336E+00         -0.110018442785870E+00
  |   5         -0.656843609252070E-02          0.463869757526212E-01         -0.311249377641121E+00
  |   6          0.118038273587634E+00         -0.331126888932951E+00          0.143672321216449E+00
  |   7         -0.187804281204978E+00         -0.108595569593305E-01         -0.766362587287766E-01
  |   8          0.892955791249336E-01          0.803574692176947E-02          0.184824980019218E+00
  |   9          0.587322449302793E-01          0.103390033250221E+00         -0.136830897170271E+00
  |  10          0.128212033665432E+01          0.274870440794593E+01          0.228384548519629E+01
  |  11          0.702347519368461E+00          0.768399489331493E+00          0.941217143992646E+00
  |  12         -0.164588276945469E+01         -0.256541017538167E+01         -0.283469152023280E+01
  |  13         -0.459466257358776E+00         -0.105733969567366E+01         -0.574134712697195E+00

  ------------------------------------ 
  Start decomposition of the XC Energy 
  ------------------------------------ 
  X and C from original XC functional choice 
  Hartree-Fock Energy :          0.000000000 Ha              0.000000000 eV
  X Energy            :        -41.037955533 Ha          -1116.699587109 eV
  C Energy            :         -1.600434806 Ha            -43.550046870 eV
  Total XC Energy     :        -42.638390339 Ha          -1160.249633979 eV
  ------------------------------------ 
  LDA X and C from self-consistent density 
  X Energy LDA        :        -37.256361906 Ha          -1013.797188899 eV
  C Energy LDA        :         -3.138563588 Ha            -85.404660568 eV
  ------------------------------------ 
  End decomposition of the XC Energy 
  ------------------------------------ 

------------------------------------------------------------

------------------------------------------------------------------------------
  Final output of selected total energy values:

  The following output summarizes some interesting total energy values
  at the end of a run (AFTER all relaxation, molecular dynamics, etc.).

  | Total energy of the DFT / Hartree-Fock s.c.f. calculation      :          -8802.266596649 eV
  | Final zero-broadening corrected energy (caution - metals only) :          -8802.266596649 eV
  | For reference only, the value of 1 Hartree used in FHI-aims is :             27.211384500 eV

  Before relying on these values, please be sure to understand exactly which
  total energy value is referred to by a given number. Different objects may
  all carry the same name 'total energy'. Definitions:

  Total energy of the DFT / Hartree-Fock s.c.f. calculation:
  | Note that this energy does not include ANY quantities calculated after the
  | s.c.f. cycle, in particular not ANY RPA, MP2, etc. many-body perturbation terms.

  Final zero-broadening corrected energy:
  | For metallic systems only, a broadening of the occupation numbers at the Fermi
  | level can be extrapolated back to zero broadening by an electron-gas inspired
  | formula. For all systems that are not real metals, this value can be
  | meaningless and should be avoided.

------------------------------------------------------------------------------
  Methods described in the following list of references were used in this FHI-aims run.
  If you publish the results, please make sure to cite these reference if they apply.
  FHI-aims is an academic code, and for our developers (often, Ph.D. students
  and postdocs), scientific credit in the community is essential.
  Thank you for helping us!

  For any use of FHI-aims, please cite:

    Volker Blum, Ralf Gehrke, Felix Hanke, Paula Havu, Ville Havu,
    Xinguo Ren, Karsten Reuter, and Matthias Scheffler
    'Ab initio molecular simulations with numeric atom-centered orbitals'
    Computer Physics Communications 180, 2175-2196 (2009)
    http://dx.doi.org/10.1016/j.cpc.2009.06.022


  The scalable eigensolver library ELPA was used in your run.
  ELPA is essential especially for large systems on hundreds or thousands of CPUs.
  For ELPA, please cite:

    Andreas Marek, Volker Blum, Rainer Johanni, Ville Havu, Bruno Lang,
    Thomas Auckenthaler, Alexander Heinecke, Hans-Joachim Bungartz, and Hermann Lederer,
    'The ELPA Library - Scalable Parallel Eigenvalue Solutions
    for Electronic Structure Theory and Computational Science'
    The Journal of Physics: Condensed Matter 26, 213201 (2014).
    http://dx.doi.org/10.1088/0953-8984/26/21/213201


  The ELSI infrastructure was used in your run to solve the Kohn-Sham electronic structure.
  Please check out http://elsi-interchange.org to learn more.
  If scalability is important for your project, please acknowledge ELSI by citing:

    V. W-z. Yu, F. Corsetti, A. Garcia, W. P. Huhn, M. Jacquelin, W. Jia,
    B. Lange, L. Lin, J. Lu, W. Mi, A. Seifitokaldani, A. Vazquez-Mayagoitia,
    C. Yang, H. Yang, and V. Blum
    'ELSI: A unified software interface for Kohn-Sham electronic structure solvers'
    Computer Physics Communications 222, 267-285 (2018).
    http://dx.doi.org/10.1016/j.cpc.2017.09.007


  For the real-space grid partitioning and parallelization used in this calculation, please cite:

    Ville Havu, Volker Blum, Paula Havu, and Matthias Scheffler,
    'Efficient O(N) integration for all-electron electronic structure calculation'
    'using numerically tabulated basis functions'
    Journal of Computational Physics 228, 8367-8379 (2009).
    http://dx.doi.org/10.1016/j.jcp.2009.08.008

  Of course, there are many other important community references, e.g., those cited in the
  above references. Our list is limited to references that describe implementations in the
  FHI-aims code. The reason is purely practical (length of this list) - please credit others as well.

------------------------------------------------------------
          Leaving FHI-aims.
          Date     :  20200710, Time     :  145019.822

          Computational steps:
          | Number of self-consistency cycles          :           16
          | Number of SCF (re)initializations          :            1

          Detailed time accounting                     :  max(cpu_time)    wall_clock(cpu1)
          | Total time                                 :       22.513 s          22.593 s
          | Preparation time                           :        0.145 s           0.154 s
          | Boundary condition initalization           :        0.000 s           0.000 s
          | Grid partitioning                          :        0.110 s           0.111 s
          | Preloading free-atom quantities on grid    :        0.002 s           0.002 s
          | Free-atom superposition energy             :        0.084 s           0.084 s
          | Total time for integrations                :        8.550 s           8.559 s
          | Total time for solution of K.-S. equations :        0.036 s           0.044 s
          | Total time for density & force components  :        7.093 s           7.106 s
          | Total time for mixing                      :        0.211 s           0.212 s
          | Total time for Hartree multipole update    :        0.139 s           0.141 s
          | Total time for Hartree multipole sum       :        5.746 s           5.754 s
          | Total time for total energy evaluation     :        0.003 s           0.002 s
          | Total time for vdW correction              :        0.089 s           0.090 s

          Partial memory accounting:
          | Residual value for overall tracked memory usage across tasks :           0.000 MB (should be 0.000 MB)
          | Peak values for overall tracked memory usage (after allocating hessian_basis_wave):
          |   Minimum:        1.612 MB (on task 1)
          |   Maximum:        1.612 MB (on task 1)
          |   Average:        1.612 MB
          | Largest tracked array allocation (hessian_basis_wave):
          |   Minimum:        0.788 MB (on task 1)
          |   Maximum:        0.788 MB (on task 1)
          |   Average:        0.788 MB
          Note:  These values currently only include a subset of arrays which are explicitly tracked.
          The "true" memory usage will be greater.

          Have a nice day.
------------------------------------------------------------
