  MPI-parallelism will be employed.
------------------------------------------------------------
          Invoking FHI-aims ...
          Version 171221_1
          Compiled on 2019/09/09 at 14:39:39 on host puhti-login2.bullx.

          When using FHI-aims, please cite the following reference:

          Volker Blum, Ralf Gehrke, Felix Hanke, Paula Havu,
          Ville Havu, Xinguo Ren, Karsten Reuter, and Matthias Scheffler,
          'Ab Initio Molecular Simulations with Numeric Atom-Centered Orbitals',
          Computer Physics Communications 180, 2175-2196 (2009)

          For any questions about FHI-aims, please visit the aimsclub website
          with its forums and wiki. Contributions to both the forums and the
          wiki are warmly encouraged - they are for you, and everyone is welcome there.

------------------------------------------------------------



  Date     :  20200902, Time     :  104537.959
  Time zero on CPU 1             :   0.119860000000000E-01  s.
  Internal wall clock time zero  :           368275537.959  s.

  FHI-aims created a unique identifier for this run for later identification
  aims_uuid : E2E1E0C8-09BA-4FC5-AEDF-B9990406DA1A

  Using        1 parallel tasks.
  Task        0 on host r18c47.bullx reporting.

  Performing system and environment tests:
  | Environment variable OMP_NUM_THREADS correctly set to 1.
  | Stacksize not measured: no C compiler
  | Checking for scalapack...
  | Testing pdtran()...
  | All pdtran() tests passed.

  Obtaining array dimensions for all initial allocations:
  
  -----------------------------------------------------------------------
  Parsing control.in (first pass over file, find array dimensions only).
  The contents of control.in will be repeated verbatim below
  unless switched off by setting 'verbatim_writeout .false.' .
  in the first line of control.in .
  -----------------------------------------------------------------------
  
  #########################################################################################
  #
  #  Volker Blum, FHI 2009 : Test run input file control.in for simple H2O
  #
  #########################################################################################
  #
  #  Physical model
  #
    xc                 pbe
    vdw_correction_hirshfeld
    spin               none
    relativistic       none
    charge             0.
  #
  #  SCF convergence
  #
    occupation_type    gaussian 0.01
    mixer              pulay
      n_max_pulay        10
      charge_mix_param   0.2
    sc_accuracy_rho    1E-5
    sc_accuracy_eev    1E-3
    sc_accuracy_etot   1E-6
    sc_accuracy_forces 1E-4
    sc_iter_limit      100
  #
  #  Relaxation
  #
  #  relax_geometry   bfgs 1.e-3
  #
  ################################################################################
  #
  #  FHI-aims code project
  #  VB, Fritz-Haber Institut, 2009
  #
  #  Suggested "light" defaults for H atom (to be pasted into control.in file)
  #  Be sure to double-check any results obtained with these settings for post-processing,
  #  e.g., with the "tight" defaults and larger basis sets.
  #
  ################################################################################
    species        H
  #     global species definitions
      nucleus             1
      mass                1.00794
  #
      l_hartree           4
  #
      cut_pot             3.5  1.5  1.0
      basis_dep_cutoff    1e-4
  #
      radial_base         24 5.0
      radial_multiplier   1
      angular_grids       specified
        division   0.2421   50
        division   0.3822  110
        division   0.4799  194
        division   0.5341  302
  #      division   0.5626  434
  #      division   0.5922  590
  #      division   0.6542  770
  #      division   0.6868 1202
  #      outer_grid  770
        outer_grid  302
  ################################################################################
  #
  #  Definition of "minimal" basis
  #
  ################################################################################
  #     valence basis states
      valence      1  s   1.
  #     ion occupancy
      ion_occ      1  s   0.5
  ################################################################################
  #
  #  Suggested additional basis functions. For production calculations,
  #  uncomment them one after another (the most important basis functions are
  #  listed first).
  #
  #  Basis constructed for dimers: 0.5 A, 0.7 A, 1.0 A, 1.5 A, 2.5 A
  #
  ################################################################################
  #  "First tier" - improvements: -1014.90 meV to -62.69 meV
       hydro 2 s 2.1
       hydro 2 p 3.5
  #  "Second tier" - improvements: -12.89 meV to -1.83 meV
  #     hydro 1 s 0.85
  #     hydro 2 p 3.7
  #     hydro 2 s 1.2
  #     hydro 3 d 7
  #  "Third tier" - improvements: -0.25 meV to -0.12 meV
  #     hydro 4 f 11.2
  #     hydro 3 p 4.8
  #     hydro 4 d 9
  #     hydro 3 s 3.2
  ################################################################################
  #
  #  FHI-aims code project
  #  VB, Fritz-Haber Institut, 2009
  #
  #  Suggested "light" defaults for C atom (to be pasted into control.in file)
  #  Be sure to double-check any results obtained with these settings for post-processing,
  #  e.g., with the "tight" defaults and larger basis sets.
  #
  ################################################################################
    species        C
  #     global species definitions
      nucleus             6
      mass                12.0107
  #
      l_hartree           4
  #
      cut_pot             3.5  1.5  1.0
      basis_dep_cutoff    1e-4
  #
      radial_base         34 5.0
      radial_multiplier   1
      angular_grids specified
        division   0.3326   50
        division   0.5710  110
        division   0.7727  194
        division   0.8772  302
  #      division   0.9334  434
  #      division   0.9625  590
  #      division   0.9924  770
  #      division   1.0230  974
  #      division   1.4589 1202
  #     outer_grid  974
       outer_grid 302
  ################################################################################
  #
  #  Definition of "minimal" basis
  #
  ################################################################################
  #     valence basis states
      valence      2  s   2.
      valence      2  p   2.
  #     ion occupancy
      ion_occ      2  s   1.
      ion_occ      2  p   1.
  ################################################################################
  #
  #  Suggested additional basis functions. For production calculations,
  #  uncomment them one after another (the most important basis functions are
  #  listed first).
  #
  #  Constructed for dimers: 1.0 A, 1.25 A, 1.5 A, 2.0 A, 3.0 A
  #
  ################################################################################
  #  "First tier" - improvements: -1214.57 meV to -155.61 meV
       hydro 2 p 1.7
       hydro 3 d 6
       hydro 2 s 4.9
  #  "Second tier" - improvements: -67.75 meV to -5.23 meV
  #     hydro 4 f 9.8
  #     hydro 3 p 5.2
  #     hydro 3 s 4.3
  #     hydro 5 g 14.4
  #     hydro 3 d 6.2
  #  "Third tier" - improvements: -2.43 meV to -0.60 meV
  #     hydro 2 p 5.6
  #     hydro 2 s 1.4
  #     hydro 3 d 4.9
  #     hydro 4 f 11.2
  #  "Fourth tier" - improvements: -0.39 meV to -0.18 meV
  #     hydro 2 p 2.1
  #     hydro 5 g 16.4
  #     hydro 4 d 13.2
  #     hydro 3 s 13.6
  #     hydro 4 f 17.6
  #  Further basis functions - improvements: -0.08 meV and below
  #     hydro 3 s 2
  #     hydro 3 p 6
  #     hydro 4 d 20
  ################################################################################
  #
  #  FHI-aims code project
  #  VB, Fritz-Haber Institut, 2009
  #
  #  Suggested "light" defaults for N atom (to be pasted into control.in file)
  #  Be sure to double-check any results obtained with these settings for post-processing,
  #  e.g., with the "tight" defaults and larger basis sets.
  #
  ################################################################################
    species        N
  #     global species definitions
      nucleus             7
      mass                14.0067
  #
      l_hartree           4
  #
      cut_pot             3.5  1.5  1.0
      basis_dep_cutoff    1e-4
  #
      radial_base         35 5.0
      radial_multiplier   1
      angular_grids       specified
        division   0.2599   50
        division   0.4601  110
        division   0.5885  194
        division   0.6503  302
  #      division   0.6939  434
  #      division   0.7396  590
  #      division   0.7632  770
  #      division   0.8122  974
  #      division   1.1604 1202
  #      outer_grid  974
        outer_grid  302
  ################################################################################
  #
  #  Definition of "minimal" basis
  #
  ################################################################################
  #     valence basis states
      valence      2  s   2.
      valence      2  p   3.
  #     ion occupancy
      ion_occ      2  s   1.
      ion_occ      2  p   2.
  ################################################################################
  #
  #  Suggested additional basis functions. For production calculations,
  #  uncomment them one after another (the most important basis functions are
  #  listed first).
  #
  #  Constructed for dimers: 1.0 A, 1.1 A, 1.5 A, 2.0 A, 3.0 A
  #
  ################################################################################
  #  "First tier" - improvements: -1193.42 meV to -220.60 meV
       hydro 2 p 1.8
       hydro 3 d 6.8
       hydro 3 s 5.8
  #  "Second tier" - improvements: -80.21 meV to -6.86 meV
  #     hydro 4 f 10.8
  #     hydro 3 p 5.8
  #     hydro 1 s 0.8
  #     hydro 5 g 16
  #     hydro 3 d 4.9
  #  "Third tier" - improvements: -4.29 meV to -0.53 meV
  #     hydro 3 s 16
  #     ionic 2 p auto
  #     hydro 3 d 6.6
  #     hydro 4 f 11.6
  #  "Fourth tier" - improvements: -0.75 meV to -0.25 meV
  #     hydro 2 p 4.5
  #     hydro 2 s 2.4
  #     hydro 5 g 14.4
  #     hydro 4 d 14.4
  #     hydro 4 f 16.8
  # Further basis functions - -0.21 meV and below
  #     hydro 3 p 14.8
  #     hydro 3 s 4.4
  #     hydro 3 d 19.6
  #     hydro 5 g 12.8
  ################################################################################
  #
  #  FHI-aims code project
  #  VB, Fritz-Haber Institut, 2009
  #
  #  Suggested "light" defaults for O atom (to be pasted into control.in file)
  #  Be sure to double-check any results obtained with these settings for post-processing,
  #  e.g., with the "tight" defaults and larger basis sets.
  #
  ################################################################################
    species        O
  #     global species definitions
      nucleus             8
      mass                15.9994
  #
      l_hartree           4
  #
      cut_pot             3.5  1.5  1.0
      basis_dep_cutoff    1e-4
  #
      radial_base         36 5.0
      radial_multiplier   1
       angular_grids specified
        division   0.2659   50
        division   0.4451  110
        division   0.6052  194
        division   0.7543  302
  #      division   0.8014  434
  #      division   0.8507  590
  #      division   0.8762  770
  #      division   0.9023  974
  #      division   1.2339 1202
  #      outer_grid 974
        outer_grid 302
  ################################################################################
  #
  #  Definition of "minimal" basis
  #
  ################################################################################
  #     valence basis states
      valence      2  s   2.
      valence      2  p   4.
  #     ion occupancy
      ion_occ      2  s   1.
      ion_occ      2  p   3.
  ################################################################################
  #
  #  Suggested additional basis functions. For production calculations,
  #  uncomment them one after another (the most important basis functions are
  #  listed first).
  #
  #  Constructed for dimers: 1.0 A, 1.208 A, 1.5 A, 2.0 A, 3.0 A
  #
  ################################################################################
  #  "First tier" - improvements: -699.05 meV to -159.38 meV
       hydro 2 p 1.8
       hydro 3 d 7.6
       hydro 3 s 6.4
  #  "Second tier" - improvements: -49.91 meV to -5.39 meV
  #     hydro 4 f 11.6
  #     hydro 3 p 6.2
  #     hydro 3 d 5.6
  #     hydro 5 g 17.6
  #     hydro 1 s 0.75
  #  "Third tier" - improvements: -2.83 meV to -0.50 meV
  #     ionic 2 p auto
  #     hydro 4 f 10.8
  #     hydro 4 d 4.7
  #     hydro 2 s 6.8
  #  "Fourth tier" - improvements: -0.40 meV to -0.12 meV
  #     hydro 3 p 5
  #     hydro 3 s 3.3
  #     hydro 5 g 15.6
  #     hydro 4 f 17.6
  #     hydro 4 d 14
  # Further basis functions - -0.08 meV and below
  #     hydro 3 s 2.1
  #     hydro 4 d 11.6
  #     hydro 3 p 16
  #     hydro 2 s 17.2
  
  -----------------------------------------------------------------------
  Completed first pass over input file control.in .
  -----------------------------------------------------------------------
  
  
  -----------------------------------------------------------------------
  Parsing geometry.in (first pass over file, find array dimensions only).
  The contents of geometry.in will be repeated verbatim below
  unless switched off by setting 'verbatim_writeout .false.' .
  in the first line of geometry.in .
  -----------------------------------------------------------------------
  
  atom  0.00000 0.00000 0.00000 C
  atom  1.09300 0.00000 0.00000 H
  atom  -0.47961 0.00000 -1.41207 N
  atom  -0.59469 -0.96682 -1.71842 H
  atom  -1.37024 0.49099 -1.45477 H
  atom  -0.49584 1.26211 0.72868 C
  atom  -1.58789 1.28919 0.74431 H
  atom  -0.13407 1.27425 1.75947 H
  atom  -0.13407 2.16087 0.22380 H
  atom  -0.39425 -1.28861 0.74398 C
  atom  -0.10189 -1.56493 1.88303 O
  atom  -1.10210 -2.13717 0.06896 O
  atom  -1.62622 -1.50377 -0.44976 H
  
  -----------------------------------------------------------------------
  Completed first pass over input file geometry.in .
  -----------------------------------------------------------------------
  

  Basic array size parameters:
  | Number of species                 :        4
  | Number of atoms                   :       13
  | Max. basis fn. angular momentum   :        2
  | Max. atomic/ionic basis occupied n:        2
  | Max. number of basis fn. types    :        2
  | Max. radial fns per species/type  :        3
  | Max. logarithmic grid size        :     1301
  | Max. radial integration grid size :       36
  | Max. angular integration grid size:      302
  | Max. angular grid division number :        8
  | Radial grid for Hartree potential :     1301
  | Number of spin channels           :        1

------------------------------------------------------------
          Reading file control.in.
------------------------------------------------------------
  XC: Using PBE gradient-corrected functionals.
  Spin treatment: No spin polarisation.
  Non-relativistic treatment of kinetic energy.
  Charge =   0.000000E+00: Neutral system requested explicitly.
  Occupation type: Gaussian broadening, width =   0.100000E-01 eV.
  Using pulay charge density mixing.
  Pulay mixing - number of memorized iterations:   10
  Charge density mixing - mixing parameter:     0.2000
  Convergence accuracy of self-consistent charge density:  0.1000E-04
  Convergence accuracy of sum of eigenvalues:  0.1000E-02
  Convergence accuracy of total energy:  0.1000E-05
  Convergence accuracy of forces:  0.1000E-03
  Maximum number of s.-c. iterations  :   100
 
  Reading configuration options for species H                   .
  | Found nuclear charge :   1.0000
  | Found atomic mass :    1.00794000000000      amu
  | Found l_max for Hartree potential  :   4
  | Found cutoff potl. onset [A], width [A], scale factor :    3.50000    1.50000    1.00000
  | Threshold for basis-dependent cutoff potential is   0.100000E-03
  | Found data for basic radial integration grid :    24 points, outermost radius =    5.000 A
  | Found multiplier for basic radial grid :   1
  | Found angular grid specification: user-specified.
  | Specified grid contains     5 separate shells.
  | Check grid settings after all constraints further below.
  | Found free-atom valence shell :  1 s   1.000
  | No ionic wave fns used. Skipping ion_occ.
  | Found hydrogenic basis function :  2 s   2.100
  | Found hydrogenic basis function :  2 p   3.500
  Species H                   : Missing cutoff potential type.
  Defaulting to exp(1/x)/(1-x)^2 type cutoff potential.
  Species H : No 'logarithmic' tag. Using default grid for free atom:
  | Default logarithmic grid data [bohr] : 0.1000E-03 0.1000E+03 0.1012E+01
  Species H : On-site basis accuracy parameter (for Gram-Schmidt orthonormalisation) not specified.
  Using default value basis_acc =  0.1000000E-03.
  Species H                   : Using default innermost maximum threshold i_radial=  2 for radial functions.
  Species H                   : Default cutoff onset for free atom density etc. : 0.35000000E+01 AA.
  Species H                   : Basic radial grid will be enhanced according to radial_multiplier =   1, to contain    24 grid points.
 
  Reading configuration options for species C                   .
  | Found nuclear charge :   6.0000
  | Found atomic mass :    12.0107000000000      amu
  | Found l_max for Hartree potential  :   4
  | Found cutoff potl. onset [A], width [A], scale factor :    3.50000    1.50000    1.00000
  | Threshold for basis-dependent cutoff potential is   0.100000E-03
  | Found data for basic radial integration grid :    34 points, outermost radius =    5.000 A
  | Found multiplier for basic radial grid :   1
  | Found angular grid specification: user-specified.
  | Specified grid contains     5 separate shells.
  | Check grid settings after all constraints further below.
  | Found free-atom valence shell :  2 s   2.000
  | Found free-atom valence shell :  2 p   2.000
  | No ionic wave fns used. Skipping ion_occ.
  | No ionic wave fns used. Skipping ion_occ.
  | Found hydrogenic basis function :  2 p   1.700
  | Found hydrogenic basis function :  3 d   6.000
  | Found hydrogenic basis function :  2 s   4.900
  Species C                   : Missing cutoff potential type.
  Defaulting to exp(1/x)/(1-x)^2 type cutoff potential.
  Species C : No 'logarithmic' tag. Using default grid for free atom:
  | Default logarithmic grid data [bohr] : 0.1000E-03 0.1000E+03 0.1012E+01
  Species C : On-site basis accuracy parameter (for Gram-Schmidt orthonormalisation) not specified.
  Using default value basis_acc =  0.1000000E-03.
  Species C                   : Using default innermost maximum threshold i_radial=  2 for radial functions.
  Species C                   : Default cutoff onset for free atom density etc. : 0.35000000E+01 AA.
  Species C                   : Basic radial grid will be enhanced according to radial_multiplier =   1, to contain    34 grid points.
 
  Reading configuration options for species N                   .
  | Found nuclear charge :   7.0000
  | Found atomic mass :    14.0067000000000      amu
  | Found l_max for Hartree potential  :   4
  | Found cutoff potl. onset [A], width [A], scale factor :    3.50000    1.50000    1.00000
  | Threshold for basis-dependent cutoff potential is   0.100000E-03
  | Found data for basic radial integration grid :    35 points, outermost radius =    5.000 A
  | Found multiplier for basic radial grid :   1
  | Found angular grid specification: user-specified.
  | Specified grid contains     5 separate shells.
  | Check grid settings after all constraints further below.
  | Found free-atom valence shell :  2 s   2.000
  | Found free-atom valence shell :  2 p   3.000
  | No ionic wave fns used. Skipping ion_occ.
  | No ionic wave fns used. Skipping ion_occ.
  | Found hydrogenic basis function :  2 p   1.800
  | Found hydrogenic basis function :  3 d   6.800
  | Found hydrogenic basis function :  3 s   5.800
  Species N                   : Missing cutoff potential type.
  Defaulting to exp(1/x)/(1-x)^2 type cutoff potential.
  Species N : No 'logarithmic' tag. Using default grid for free atom:
  | Default logarithmic grid data [bohr] : 0.1000E-03 0.1000E+03 0.1012E+01
  Species N : On-site basis accuracy parameter (for Gram-Schmidt orthonormalisation) not specified.
  Using default value basis_acc =  0.1000000E-03.
  Species N                   : Using default innermost maximum threshold i_radial=  2 for radial functions.
  Species N                   : Default cutoff onset for free atom density etc. : 0.35000000E+01 AA.
  Species N                   : Basic radial grid will be enhanced according to radial_multiplier =   1, to contain    35 grid points.
 
  Reading configuration options for species O                   .
  | Found nuclear charge :   8.0000
  | Found atomic mass :    15.9994000000000      amu
  | Found l_max for Hartree potential  :   4
  | Found cutoff potl. onset [A], width [A], scale factor :    3.50000    1.50000    1.00000
  | Threshold for basis-dependent cutoff potential is   0.100000E-03
  | Found data for basic radial integration grid :    36 points, outermost radius =    5.000 A
  | Found multiplier for basic radial grid :   1
  | Found angular grid specification: user-specified.
  | Specified grid contains     5 separate shells.
  | Check grid settings after all constraints further below.
  | Found free-atom valence shell :  2 s   2.000
  | Found free-atom valence shell :  2 p   4.000
  | No ionic wave fns used. Skipping ion_occ.
  | No ionic wave fns used. Skipping ion_occ.
  | Found hydrogenic basis function :  2 p   1.800
  | Found hydrogenic basis function :  3 d   7.600
  | Found hydrogenic basis function :  3 s   6.400
  Species O                   : Missing cutoff potential type.
  Defaulting to exp(1/x)/(1-x)^2 type cutoff potential.
  Species O : No 'logarithmic' tag. Using default grid for free atom:
  | Default logarithmic grid data [bohr] : 0.1000E-03 0.1000E+03 0.1012E+01
  Species O : On-site basis accuracy parameter (for Gram-Schmidt orthonormalisation) not specified.
  Using default value basis_acc =  0.1000000E-03.
  Species O                   : Using default innermost maximum threshold i_radial=  2 for radial functions.
  Species O                   : Default cutoff onset for free atom density etc. : 0.35000000E+01 AA.
  Species O                   : Basic radial grid will be enhanced according to radial_multiplier =   1, to contain    36 grid points.
 
  Finished reading input file 'control.in'. Consistency checks are next.
 
  MPI_IN_PLACE appears to work with this MPI implementation.
  | Keeping use_mpi_in_place .true. (see manual).
  Target number of points in a grid batch is not set. Defaulting to  100
  Method for grid partitioning is not set. Defaulting to parallel hash+maxmin partitioning.
  Batch size limit is not set. Defaulting to    200
  By default, will store active basis functions for each batch.
  If in need of memory, prune_basis_once .false. can be used to disable this option.
  communication_type for Hartree potential was not specified.
  Defaulting to calc_hartree .
  Pulay mixer: Number of initial linear mixing iterations not set.
  Defaulting to    0 iterations.
  Work space size for distributed Hartree potential not set.
  Defaulting to   0.200000E+03 MB.
  Algorithm-dependent basis array size parameters:
  | n_max_pulay                         :       10
  Presetting      1001 iterations before the initial mixing cycle
  is restarted anyway using the sc_init_iter criterion / keyword.
  Presetting a factor      1.000 between actual scf density residual
  and density convergence criterion sc_accuracy_rho below which sc_init_iter
  takes no effect.
  Geometry relaxation not requested: no relaxation will be performed.
  Handling of forces: Unphysical translation and rotation will be removed from forces.
  No accuracy limit for integral partition fn. given. Defaulting to  0.1000E-14.
  No threshold value for u(r) in integrations given. Defaulting to  0.1000E-05.
  No accuracy for occupation numbers given. Defaulting to  0.1000E-12.
  No threshold value for occupation numbers given. Defaulting to  0.0000E+00.
  No accuracy for fermi level given. Defaulting to  0.1000E-19.
  Maximum # of iterations to find E_F not set. Defaulting to  200.
  Preferred method for the eigenvalue solver ('KS_method') not specified in 'control.in'.
  Defaulting to serial version, 'lapack_fast'.
  Will not use alltoall communication since running on < 1024 CPUs.
  Threshold for basis singularities not set.
  Default threshold for basis singularities:  0.1000E-04
  partition_type (choice of integration weights) for integrals was not specified.
  | Using a version of the partition function of Stratmann and coworkers ('stratmann_smoother').
  | At each grid point, the set of atoms used to build the partition table is smoothly restricted to
  | only those atoms whose free-atom density would be non-zero at that grid point.
  Partitioning for Hartree potential was not defined. Using partition_type for integrals.
  | Adjusted default value of keyword multip_moments_threshold to:       0.10000000E-11
  | This value may affect high angular momentum components of the Hartree potential in periodic systems.
  No q(lm)/r^(l+1) cutoff set for long-range Hartree potential.
  | Using default value of  0.100000E-09 .
  | Verify using the multipole_threshold keyword.
  Defaulting to new monopole extrapolation.
  Density update method: automatic selection selected.
------------------------------------------------------------


------------------------------------------------------------
          Reading geometry description geometry.in.
------------------------------------------------------------
  Input structure read successfully.
  The structure contains       13 atoms,  and a total of         48.000 electrons.

  Input geometry:
  | No unit cell requested.
  | Atomic structure:
  |       Atom                x [A]            y [A]            z [A]
  |    1: Species C             0.00000000        0.00000000        0.00000000
  |    2: Species H             1.09300000        0.00000000        0.00000000
  |    3: Species N            -0.47961000        0.00000000       -1.41207000
  |    4: Species H            -0.59469000       -0.96682000       -1.71842000
  |    5: Species H            -1.37024000        0.49099000       -1.45477000
  |    6: Species C            -0.49584000        1.26211000        0.72868000
  |    7: Species H            -1.58789000        1.28919000        0.74431000
  |    8: Species H            -0.13407000        1.27425000        1.75947000
  |    9: Species H            -0.13407000        2.16087000        0.22380000
  |   10: Species C            -0.39425000       -1.28861000        0.74398000
  |   11: Species O            -0.10189000       -1.56493000        1.88303000
  |   12: Species O            -1.10210000       -2.13717000        0.06896000
  |   13: Species H            -1.62622000       -1.50377000       -0.44976000
  |

  | The smallest distance between any two atoms is         0.97209453 AA.
  |
  | The first atom of this pair is atom number                     12 .
  | The second atom of this pair is atom number                    13 .

  Number of empty states per atom not set in control.in - providing a guess from actual geometry.
  | Total number of empty states used during s.c.f. cycle:       29
  If you use a very high smearing, use empty_states (per atom!) in control.in to increase this value.

  Structure-dependent array size parameters: 
  | Maximum number of distinct radial functions  :       21
  | Maximum number of basis functions            :      119
  | Number of Kohn-Sham states (occupied + empty):       53
------------------------------------------------------------

------------------------------------------------------------
          Preparing all fixed parts of the calculation.
------------------------------------------------------------
  Determining machine precision:
    2.225073858507201E-308
  Setting up grids for atomic and cluster calculations.

  Creating wave function, potential, and density for free atoms.

  Species: H

  List of occupied orbitals and eigenvalues:
    n    l              occ      energy [Ha]    energy [eV]
    1    0           1.0000        -0.237589        -6.4651


  Species: C

  List of occupied orbitals and eigenvalues:
    n    l              occ      energy [Ha]    energy [eV]
    1    0           2.0000       -10.038835      -273.1706
    2    0           2.0000        -0.502696       -13.6791
    2    1           2.0000        -0.191971        -5.2238


  Species: N

  List of occupied orbitals and eigenvalues:
    n    l              occ      energy [Ha]    energy [eV]
    1    0           2.0000       -14.128000      -384.4424
    2    0           2.0000        -0.681077       -18.5330
    2    1           3.0000        -0.259788        -7.0692


  Species: O

  List of occupied orbitals and eigenvalues:
    n    l              occ      energy [Ha]    energy [eV]
    1    0           2.0000       -18.898188      -514.2459
    2    0           2.0000        -0.878505       -23.9053
    2    1           4.0000        -0.331779        -9.0282

  Creating fixed part of basis set: Ionic, confined, hydrogenic.
 
  H                    hydrogenic:
 
  List of hydrogenic basis orbitals: 
    n    l      effective z      eigenvalue [eV]  inner max. [A]     outer max. [A]     outer radius [A]   
    2    0         2.100000       -14.9728           0.193243           1.317208           4.583499
    2    1         3.500000       -41.6669           0.602369           0.602369           3.723403
 
 
  C                    hydrogenic:
 
  List of hydrogenic basis orbitals: 
    n    l      effective z      eigenvalue [eV]  inner max. [A]     outer max. [A]     outer radius [A]   
    2    1         1.700000        -9.7616           1.230570           1.230570           4.607917
    3    2         6.000000       -54.4224           0.792453           0.792453           3.883070
    2    0         4.900000       -81.6679           0.082559           0.562749           3.078220
 
 
  N                    hydrogenic:
 
  List of hydrogenic basis orbitals: 
    n    l      effective z      eigenvalue [eV]  inner max. [A]     outer max. [A]     outer radius [A]   
    2    1         1.800000       -10.9749           1.177451           1.177451           4.573712
    3    2         6.800000       -69.9026           0.704619           0.704619           3.538137
    3    0         5.800000       -50.8545           0.067388           1.191934           4.250239
 
 
  O                    hydrogenic:
 
  List of hydrogenic basis orbitals: 
    n    l      effective z      eigenvalue [eV]  inner max. [A]     outer max. [A]     outer radius [A]   
    2    1         1.800000       -10.9749           1.164242           1.164242           4.578029
    3    2         7.600000       -87.3180           0.624125           0.624125           3.251020
    3    0         6.400000       -61.9207           0.061167           1.081902           4.001998
 

  Adding cutoff potential to free-atom effective potential.
  Creating atomic-like basis functions for current effective potential.

  Species H                   :

  List of atomic basis orbitals and eigenvalues:
    n    l      energy [Ha]    energy [eV]    outer radius [A]
    1    0        -0.237589        -6.4651       4.527807


  Species C                   :

  List of atomic basis orbitals and eigenvalues:
    n    l      energy [Ha]    energy [eV]    outer radius [A]
    1    0       -10.038835      -273.1706       1.934409
    2    0        -0.502696       -13.6791       4.496620
    2    1        -0.191971        -5.2238       4.551928


  Species N                   :

  List of atomic basis orbitals and eigenvalues:
    n    l      energy [Ha]    energy [eV]    outer radius [A]
    1    0       -14.128000      -384.4424       1.637919
    2    0        -0.681077       -18.5330       4.463241
    2    1        -0.259788        -7.0692       4.518138


  Species O                   :

  List of atomic basis orbitals and eigenvalues:
    n    l      energy [Ha]    energy [eV]    outer radius [A]
    1    0       -18.898188      -514.2459       1.415765
    2    0        -0.878505       -23.9053       4.413171
    2    1        -0.331779        -9.0282       4.522403

  Assembling full basis from fixed parts.
  | Species H :   atomic orbital   1 s accepted.
  | Species H :    hydro orbital   2 s accepted.
  | Species H :    hydro orbital   2 p accepted.
  | Species C :   atomic orbital   1 s accepted.
  | Species C :    hydro orbital   2 s accepted.
  | Species C :   atomic orbital   2 s accepted.
  | Species C :   atomic orbital   2 p accepted.
  | Species C :    hydro orbital   2 p accepted.
  | Species C :    hydro orbital   3 d accepted.
  | Species N :   atomic orbital   1 s accepted.
  | Species N :    hydro orbital   3 s accepted.
  | Species N :   atomic orbital   2 s accepted.
  | Species N :   atomic orbital   2 p accepted.
  | Species N :    hydro orbital   2 p accepted.
  | Species N :    hydro orbital   3 d accepted.
  | Species O :   atomic orbital   1 s accepted.
  | Species O :    hydro orbital   3 s accepted.
  | Species O :   atomic orbital   2 s accepted.
  | Species O :   atomic orbital   2 p accepted.
  | Species O :    hydro orbital   2 p accepted.
  | Species O :    hydro orbital   3 d accepted.
 
  Basis size parameters after reduction:
  | Total number of radial functions:       21
  | Total number of basis functions :      119
 
  Per-task memory consumption for arrays in subroutine allocate_ext:
  |           5.250512MB.
  Testing on-site integration grid accuracy.
  |  Species  Function  <phi|h_atom|phi> (log., in eV)  <phi|h_atom|phi> (rad., in eV)
           1        1                 -6.4663192853                 -6.4651273558
           1        2                 13.7111246313                 13.7170609718
           1        3                 25.2673269279                 25.2674696378
           2        4               -273.1705927641               -273.1705631568
           2        5                -10.7109323383                -10.7107120029
           2        6                 17.4381822266                 17.4352413244
           2        7                 -5.2255326521                 -5.2270484734
           2        8                  8.6835629259                  8.6603288385
           2        9                 27.4952418996                 27.4953360207
           3       10               -384.4424306495               -384.4423701208
           3       11                 12.5842251816                 12.5842222903
           3       12                -15.7264628251                -15.7264433455
           3       13                 -7.0696854293                 -7.0701769954
           3       14                  8.8090390882                  8.7901077751
           3       15                 35.9586762123                 35.9588528632
           4       16               -514.2458688638               -514.2457643834
           4       17                 15.1795651126                 15.1795290741
           4       18                -21.5359799773                -21.5360846186
           4       19                 -9.0283069236                 -9.0284644067
           4       20                  8.3027758564                  8.2834874195
           4       21                 45.8339351984                 45.8338762259

  Preparing densities etc. for the partition functions (integrals / Hartree potential).

  Preparations completed.
  max(cpu_time)          :      0.152 s.
  Wall clock time (cpu1) :      0.155 s.
------------------------------------------------------------

------------------------------------------------------------
          Begin self-consistency loop: Initialization.

          Date     :  20200902, Time     :  104538.131
------------------------------------------------------------

  Initializing index lists of integration centers etc. from given atomic structure:
  | Number of centers in hartree potential         :        13
  | Number of centers in hartree multipole         :        13
  | Number of centers in electron density summation:        13
  | Number of centers in basis integrals           :        13
  | Number of centers in integrals                 :        13
  | Number of centers in hamiltonian               :        13
  Partitioning the integration grid into batches with parallel hashing+maxmin method.
  | Number of batches:      956
  | Maximal batch size:     139
  | Minimal batch size:      66
  | Average batch size:      72.851
  | Standard deviation of batch sizes:      17.549

  Integration load balanced across     1 MPI tasks.
  Work distribution over tasks is as follows:
  Task     0 has      69646 integration points.
  Initializing partition tables, free-atom densities, potentials, etc. across the integration grid (initialize_grid_storage).
  | initialize_grid_storage: Actual outermost partition radius vs. multipole_radius_free
  | (-- VB: in principle, multipole_radius_free should be larger, hence this output)
  | Species        1: Confinement radius =              4.999999999999999 AA, multipole_radius_free =              5.054417573612229 AA.
  | Species        1: outer_partition_radius set to              5.054417573612229 AA .
  | Species        2: Confinement radius =              4.999999999999999 AA, multipole_radius_free =              5.019602836301480 AA.
  | Species        2: outer_partition_radius set to              5.019602836301480 AA .
  | Species        3: Confinement radius =              4.999999999999999 AA, multipole_radius_free =              5.043624274424571 AA.
  | Species        3: outer_partition_radius set to              5.043624274424571 AA .
  | Species        4: Confinement radius =              4.999999999999999 AA, multipole_radius_free =              5.048384829883283 AA.
  | Species        4: outer_partition_radius set to              5.048384829883283 AA .
  | Original list of interatomic distances with          13 x         13 entries is created.
  | Net number of integration points:    69646
  | of which are non-zero points    :    59243
  Renormalizing the initial density to the exact electron count on the 3D integration grid.
  | Initial density: Formal number of electrons (from input files) :      48.0000000000
  | Integrated number of electrons on 3D grid     :      47.9997885197
  | Charge integration error                      :      -0.0002114803
  | Normalization factor for density and gradient :       1.0000044059
  Obtaining max. number of non-zero basis functions in each batch (get_n_compute_maxes).
  | Maximal number of non-zero basis functions:      119 in task     0
  Selecting the method for density update.
  Loop over occupied states selected for charge density update.
  Allocating        0.050 MB for KS_eigenvector
  Integrating Hamiltonian matrix: batch-based integration.
  Time summed over all CPUs for integration: real work        0.511 s, elapsed        0.511 s
  Integrating overlap matrix.
  Time summed over all CPUs for integration: real work        0.216 s, elapsed        0.216 s

  Updating Kohn-Sham eigenvalues and eigenvectors using ELSI and the ELPA eigensolver.
  Overlap matrix is nonsingular
  | Lowest eigenvalue of overlap  :  0.53E-02
  | Highest eigenvalue of overlap :  0.64E+01
  Finished singularity check of overlap matrix
  | Time :     0.001 s
  Finished Cholesky decomposition
  | Time :     0.001 s
  Finished transformation to standard eigenproblem
  | Time :     0.000 s
  Starting LAPACK eigensolver
  Finished solving standard eigenproblem
  | Time :     0.002 s
  Finished back-transformation of eigenvectors
  | Time :     0.000 s

  Obtaining occupation numbers and chemical potential using ELSI.
  | Chemical potential (Fermi level):    -9.23663779eV
  Writing Kohn-Sham eigenvalues.

  State    Occupation    Eigenvalue [Ha]    Eigenvalue [eV]
      1       2.00000         -19.008182         -517.23895
      2       2.00000         -18.977137         -516.39417
      3       2.00000         -14.246687         -387.67207
      4       2.00000         -10.166824         -276.65336
      5       2.00000         -10.141780         -275.97188
      6       2.00000         -10.132126         -275.70916
      7       2.00000          -1.182921          -32.18893
      8       2.00000          -1.101656          -29.97759
      9       2.00000          -0.993339          -27.03013
     10       2.00000          -0.860740          -23.42193
     11       2.00000          -0.754562          -20.53269
     12       2.00000          -0.680437          -18.51563
     13       2.00000          -0.639571          -17.40362
     14       2.00000          -0.614559          -16.72299
     15       2.00000          -0.585014          -15.91903
     16       2.00000          -0.558461          -15.19649
     17       2.00000          -0.543392          -14.78646
     18       2.00000          -0.539194          -14.67223
     19       2.00000          -0.515306          -14.02219
     20       2.00000          -0.492639          -13.40539
     21       2.00000          -0.472921          -12.86884
     22       2.00000          -0.431496          -11.74161
     23       2.00000          -0.420489          -11.44208
     24       2.00000          -0.379153          -10.31728
     25       0.00000          -0.152430           -4.14783
     26       0.00000          -0.068527           -1.86470
     27       0.00000          -0.029233           -0.79546
     28       0.00000          -0.009793           -0.26648
     29       0.00000          -0.002707           -0.07367
     30       0.00000           0.009669            0.26311
     31       0.00000           0.021870            0.59511
     32       0.00000           0.027824            0.75712
     33       0.00000           0.046562            1.26702
     34       0.00000           0.056098            1.52649
     35       0.00000           0.094305            2.56618
     36       0.00000           0.132038            3.59295
     37       0.00000           0.160526            4.36813
     38       0.00000           0.201031            5.47033
     39       0.00000           0.221173            6.01843
     40       0.00000           0.232647            6.33064
     41       0.00000           0.245879            6.69072
     42       0.00000           0.269259            7.32691
     43       0.00000           0.285585            7.77118
     44       0.00000           0.296411            8.06576
     45       0.00000           0.313578            8.53290
     46       0.00000           0.355738            9.68013
     47       0.00000           0.370540           10.08290
     48       0.00000           0.394338           10.73047
     49       0.00000           0.425157           11.56911
     50       0.00000           0.470343           12.79868
     51       0.00000           0.511098           13.90769
     52       0.00000           0.563883           15.34403
     53       0.00000           0.578695           15.74708

  Highest occupied state (VBM) at    -10.31728246 eV
  | Occupation number:      2.00000000

  Lowest unoccupied state (CBM) at    -4.14783190 eV
  | Occupation number:      0.00000000

  Overall HOMO-LUMO gap:      6.16945056 eV.
  Calculating total energy contributions from superposition of free atom densities.

  Total energy components:
  | Sum of eigenvalues            :        -188.87717400 Ha       -5139.60940505 eV
  | XC energy correction          :         -41.80810234 Ha       -1137.65634792 eV
  | XC potential correction       :          53.74689190 Ha        1462.52734114 eV
  | Free-atom electrostatic energy:        -146.81789865 Ha       -3995.11829176 eV
  | Hartree energy correction     :           0.00000000 Ha           0.00000000 eV
  | vdW energy correction         :           0.00000000 Ha           0.00000000 eV
  | Entropy correction            :           0.00000000 Ha           0.00000000 eV
  | ---------------------------
  | Total energy                  :        -323.75628310 Ha       -8809.85670359 eV
  | Total energy, T -> 0          :        -323.75628310 Ha       -8809.85670359 eV  <-- do not rely on this value for anything but (periodic) metals
  | Electronic free energy        :        -323.75628310 Ha       -8809.85670359 eV

  Derived energy quantities:
  | Kinetic energy                :         320.53872797 Ha        8722.30257393 eV
  | Electrostatic energy          :        -602.48690873 Ha      -16394.50292960 eV
  | Energy correction for multipole
  | error in Hartree potential    :           0.00000000 Ha           0.00000000 eV
  | Sum of eigenvalues per atom                           :        -395.35456962 eV
  | Total energy (T->0) per atom                          :        -677.68128489 eV  <-- do not rely on this value for anything but (periodic) metals
  | Electronic free energy per atom                       :        -677.68128489 eV
  Initialize hartree_potential_storage
  Max. number of atoms included in rho_multipole:           13

  End scf initialization - timings             :  max(cpu_time)    wall_clock(cpu1)
  | Time for scf. initialization               :        1.171 s           1.178 s
  | Boundary condition initialization          :        0.000 s           0.001 s
  | Integration                                :        0.725 s           0.728 s
  | Solution of K.-S. eqns.                    :        0.004 s           0.005 s
  | Grid partitioning                          :        0.113 s           0.114 s
  | Preloading free-atom quantities on grid    :        0.002 s           0.002 s
  | Free-atom superposition energy             :        0.085 s           0.084 s
  | Total energy evaluation                    :        0.000 s           0.000 s

  Partial memory accounting:
  | Current value for overall tracked memory usage on task 0  :           0.165 MB
  | Peak value for overall tracked memory usage on task 0     :           0.678 MB after allocating wave
  | Largest tracked array allocation on task 0 so far         :           0.132 MB  when allocating H_times_psi
  Note:  These values currently only include a subset of arrays which are explicitly tracked.
  The "true" memory usage will be greater.
------------------------------------------------------------

------------------------------------------------------------
          Begin self-consistency iteration #    1

  Date     :  20200902, Time     :  104539.309
------------------------------------------------------------
  Evaluating new KS density.
  Integration grid: deviation in total charge (<rho> - N_e) =  -1.421085E-14
  Pulay mixing of updated and previous charge densities.

  Evaluating partitioned Hartree potential by multipole expansion.
  | Analytical far-field extrapolation by fixed multipoles:
  | Hartree multipole sum: apparent total charge =  -0.315719E-03
  Summing up the Hartree potential.
  Time summed over all CPUs for potential: real work        0.283 s, elapsed        0.283 s
  | RMS charge density error from multipole expansion :   0.589773E-02

  Integrating Hamiltonian matrix: batch-based integration.
  Time summed over all CPUs for integration: real work        0.504 s, elapsed        0.504 s

  Updating Kohn-Sham eigenvalues and eigenvectors using ELSI and the ELPA eigensolver.
  Finished Cholesky decomposition
  | Time :     0.000 s
  Finished transformation to standard eigenproblem
  | Time :     0.000 s
  Starting LAPACK eigensolver
  Finished solving standard eigenproblem
  | Time :     0.002 s
  Finished back-transformation of eigenvectors
  | Time :     0.000 s

  Obtaining occupation numbers and chemical potential using ELSI.
  | Chemical potential (Fermi level):    -8.24754185eV
  Writing Kohn-Sham eigenvalues.

  State    Occupation    Eigenvalue [Ha]    Eigenvalue [eV]
      1       2.00000         -18.909627         -514.55713
      2       2.00000         -18.832015         -512.44520
      3       2.00000         -14.107573         -383.88660
      4       2.00000         -10.115688         -275.26188
      5       2.00000         -10.067575         -273.95266
      6       2.00000         -10.035704         -273.08540
      7       2.00000          -1.136503          -30.92582
      8       2.00000          -1.037324          -28.22703
      9       2.00000          -0.931350          -25.34332
     10       2.00000          -0.799027          -21.74264
     11       2.00000          -0.704910          -19.18159
     12       2.00000          -0.639250          -17.39489
     13       2.00000          -0.588962          -16.02647
     14       2.00000          -0.562759          -15.31345
     15       2.00000          -0.526633          -14.33040
     16       2.00000          -0.495991          -13.49660
     17       2.00000          -0.490833          -13.35624
     18       2.00000          -0.482553          -13.13094
     19       2.00000          -0.452935          -12.32500
     20       2.00000          -0.440295          -11.98104
     21       2.00000          -0.417274          -11.35461
     22       2.00000          -0.370459          -10.08069
     23       2.00000          -0.351176           -9.55598
     24       2.00000          -0.310145           -8.43948
     25       0.00000          -0.115636           -3.14662
     26       0.00000          -0.049085           -1.33566
     27       0.00000           0.009950            0.27075
     28       0.00000           0.020383            0.55464
     29       0.00000           0.023679            0.64434
     30       0.00000           0.041394            1.12638
     31       0.00000           0.053882            1.46620
     32       0.00000           0.064205            1.74711
     33       0.00000           0.078345            2.13189
     34       0.00000           0.092888            2.52762
     35       0.00000           0.134601            3.66269
     36       0.00000           0.161270            4.38839
     37       0.00000           0.183587            4.99566
     38       0.00000           0.229102            6.23419
     39       0.00000           0.248434            6.76024
     40       0.00000           0.261756            7.12274
     41       0.00000           0.278484            7.57794
     42       0.00000           0.303428            8.25670
     43       0.00000           0.320000            8.70764
     44       0.00000           0.331380            9.01732
     45       0.00000           0.348670            9.48780
     46       0.00000           0.397691           10.82172
     47       0.00000           0.408473           11.11511
     48       0.00000           0.427771           11.64025
     49       0.00000           0.460038           12.51827
     50       0.00000           0.505361           13.75158
     51       0.00000           0.543244           14.78241
     52       0.00000           0.592820           16.13144
     53       0.00000           0.611984           16.65293

  Highest occupied state (VBM) at     -8.43947869 eV
  | Occupation number:      2.00000000

  Lowest unoccupied state (CBM) at    -3.14661781 eV
  | Occupation number:      0.00000000

  Overall HOMO-LUMO gap:      5.29286088 eV.

  Total energy components:
  | Sum of eigenvalues            :        -185.61312519 Ha       -5050.79011768 eV
  | XC energy correction          :         -42.13104886 Ha       -1146.44416994 eV
  | XC potential correction       :          54.16678039 Ha        1473.95308833 eV
  | Free-atom electrostatic energy:        -146.81789865 Ha       -3995.11829176 eV
  | Hartree energy correction     :          -3.18341548 Ha         -86.62514255 eV
  | vdW energy correction         :           0.00000000 Ha           0.00000000 eV
  | Entropy correction            :          -0.00000000 Ha          -0.00000000 eV
  | ---------------------------
  | Total energy                  :        -323.57870779 Ha       -8805.02463361 eV
  | Total energy, T -> 0          :        -323.57870779 Ha       -8805.02463361 eV  <-- do not rely on this value for anything but (periodic) metals
  | Electronic free energy        :        -323.57870779 Ha       -8805.02463361 eV

  Derived energy quantities:
  | Kinetic energy                :         322.30534961 Ha        8770.37479470 eV
  | Electrostatic energy          :        -603.75300854 Ha      -16428.95525837 eV
  | Energy correction for multipole
  | error in Hartree potential    :           0.01166820 Ha           0.31750781 eV
  | Sum of eigenvalues per atom                           :        -388.52231674 eV
  | Total energy (T->0) per atom                          :        -677.30958720 eV  <-- do not rely on this value for anything but (periodic) metals
  | Electronic free energy per atom                       :        -677.30958720 eV

  Self-consistency convergence accuracy:
  | Change of charge density      :  0.5787E+00
  | Change of sum of eigenvalues  :  0.8882E+02 eV
  | Change of total energy        :  0.4832E+01 eV

  End self-consistency iteration #     1       :  max(cpu_time)    wall_clock(cpu1)
  | Time for this iteration                    :        1.205 s           1.206 s
  | Charge density update                      :        0.400 s           0.401 s
  | Density mixing                             :        0.006 s           0.005 s
  | Hartree multipole update                   :        0.009 s           0.009 s
  | Hartree multipole summation                :        0.284 s           0.284 s
  | Integration                                :        0.504 s           0.504 s
  | Solution of K.-S. eqns.                    :        0.002 s           0.003 s
  | Total energy evaluation                    :        0.000 s           0.000 s

  Partial memory accounting:
  | Current value for overall tracked memory usage on task 0  :           0.165 MB
  | Peak value for overall tracked memory usage on task 0     :           0.695 MB after allocating gradient_basis_wave
  | Largest tracked array allocation on task 0 so far         :           0.397 MB  when allocating gradient_basis_wave
  Note:  These values currently only include a subset of arrays which are explicitly tracked.
  The "true" memory usage will be greater.
------------------------------------------------------------

------------------------------------------------------------
          Begin self-consistency iteration #    2

  Date     :  20200902, Time     :  104540.518
------------------------------------------------------------
  Evaluating new KS density.
  Integration grid: deviation in total charge (<rho> - N_e) =  -2.131628E-14
  Pulay mixing of updated and previous charge densities.

  Evaluating partitioned Hartree potential by multipole expansion.
  | Analytical far-field extrapolation by fixed multipoles:
  | Hartree multipole sum: apparent total charge =  -0.446758E-03
  Summing up the Hartree potential.
  Time summed over all CPUs for potential: real work        0.284 s, elapsed        0.284 s
  | RMS charge density error from multipole expansion :   0.139664E-01

  Integrating Hamiltonian matrix: batch-based integration.
  Time summed over all CPUs for integration: real work        0.504 s, elapsed        0.504 s

  Updating Kohn-Sham eigenvalues and eigenvectors using ELSI and the ELPA eigensolver.
  Finished Cholesky decomposition
  | Time :     0.000 s
  Finished transformation to standard eigenproblem
  | Time :     0.000 s
  Starting LAPACK eigensolver
  Finished solving standard eigenproblem
  | Time :     0.001 s
  Finished back-transformation of eigenvectors
  | Time :     0.000 s

  Obtaining occupation numbers and chemical potential using ELSI.
  | Chemical potential (Fermi level):    -2.98560504eV
  Highest occupied state (VBM) at     -6.60142511 eV
  | Occupation number:      2.00000000

  Lowest unoccupied state (CBM) at    -1.86533864 eV
  | Occupation number:      0.00000000

  Overall HOMO-LUMO gap:      4.73608647 eV.

  Checking to see if s.c.f. parameters should be adjusted.

  Total energy components:
  | Sum of eigenvalues            :        -182.19450891 Ha       -4957.76483585 eV
  | XC energy correction          :         -42.48196919 Ha       -1155.99319794 eV
  | XC potential correction       :          54.62142284 Ha        1486.32453893 eV
  | Free-atom electrostatic energy:        -146.81789865 Ha       -3995.11829176 eV
  | Hartree energy correction     :          -6.62990951 Ha        -180.40901697 eV
  | vdW energy correction         :           0.00000000 Ha           0.00000000 eV
  | Entropy correction            :           0.00000000 Ha           0.00000000 eV
  | ---------------------------
  | Total energy                  :        -323.50286343 Ha       -8802.96080359 eV
  | Total energy, T -> 0          :        -323.50286343 Ha       -8802.96080359 eV  <-- do not rely on this value for anything but (periodic) metals
  | Electronic free energy        :        -323.50286343 Ha       -8802.96080359 eV

  Derived energy quantities:
  | Kinetic energy                :         323.60160775 Ha        8805.64777318 eV
  | Electrostatic energy          :        -604.62250198 Ha      -16452.61537883 eV
  | Energy correction for multipole
  | error in Hartree potential    :           0.02554651 Ha           0.69515584 eV
  | Sum of eigenvalues per atom                           :        -381.36652583 eV
  | Total energy (T->0) per atom                          :        -677.15083105 eV  <-- do not rely on this value for anything but (periodic) metals
  | Electronic free energy per atom                       :        -677.15083105 eV

  Self-consistency convergence accuracy:
  | Change of charge density      :  0.3617E+00
  | Change of sum of eigenvalues  :  0.9303E+02 eV
  | Change of total energy        :  0.2064E+01 eV

  End self-consistency iteration #     2       :  max(cpu_time)    wall_clock(cpu1)
  | Time for this iteration                    :        1.195 s           1.198 s
  | Charge density update                      :        0.390 s           0.391 s
  | Density mixing                             :        0.007 s           0.007 s
  | Hartree multipole update                   :        0.009 s           0.009 s
  | Hartree multipole summation                :        0.283 s           0.284 s
  | Integration                                :        0.504 s           0.504 s
  | Solution of K.-S. eqns.                    :        0.002 s           0.002 s
  | Total energy evaluation                    :        0.000 s           0.001 s

  Partial memory accounting:
  | Current value for overall tracked memory usage on task 0  :           0.166 MB
  | Peak value for overall tracked memory usage on task 0     :           0.695 MB after allocating gradient_basis_wave
  | Largest tracked array allocation on task 0 so far         :           0.397 MB  when allocating gradient_basis_wave
  Note:  These values currently only include a subset of arrays which are explicitly tracked.
  The "true" memory usage will be greater.
------------------------------------------------------------

------------------------------------------------------------
          Begin self-consistency iteration #    3

  Date     :  20200902, Time     :  104541.718
------------------------------------------------------------
  Evaluating new KS density.
  Integration grid: deviation in total charge (<rho> - N_e) =   7.105427E-15
  Pulay mixing of updated and previous charge densities.

  Evaluating partitioned Hartree potential by multipole expansion.
  | Analytical far-field extrapolation by fixed multipoles:
  | Hartree multipole sum: apparent total charge =  -0.538546E-03
  Summing up the Hartree potential.
  Time summed over all CPUs for potential: real work        0.283 s, elapsed        0.283 s
  | RMS charge density error from multipole expansion :   0.220576E-01

  Integrating Hamiltonian matrix: batch-based integration.
  Time summed over all CPUs for integration: real work        0.504 s, elapsed        0.504 s

  Updating Kohn-Sham eigenvalues and eigenvectors using ELSI and the ELPA eigensolver.
  Finished Cholesky decomposition
  | Time :     0.000 s
  Finished transformation to standard eigenproblem
  | Time :     0.000 s
  Starting LAPACK eigensolver
  Finished solving standard eigenproblem
  | Time :     0.001 s
  Finished back-transformation of eigenvectors
  | Time :     0.000 s

  Obtaining occupation numbers and chemical potential using ELSI.
  | Chemical potential (Fermi level):    -2.41682453eV
  Highest occupied state (VBM) at     -5.97508317 eV
  | Occupation number:      2.00000000

  Lowest unoccupied state (CBM) at    -1.12879690 eV
  | Occupation number:      0.00000000

  Overall HOMO-LUMO gap:      4.84628627 eV.

  Total energy components:
  | Sum of eigenvalues            :        -180.85764347 Ha       -4921.38687616 eV
  | XC energy correction          :         -42.63783402 Ha       -1160.23449590 eV
  | XC potential correction       :          54.82012093 Ha        1491.73138889 eV
  | Free-atom electrostatic energy:        -146.81789865 Ha       -3995.11829176 eV
  | Hartree energy correction     :          -7.99723440 Ha        -217.61582014 eV
  | vdW energy correction         :           0.00000000 Ha           0.00000000 eV
  | Entropy correction            :           0.00000000 Ha           0.00000000 eV
  | ---------------------------
  | Total energy                  :        -323.49048962 Ha       -8802.62409506 eV
  | Total energy, T -> 0          :        -323.49048962 Ha       -8802.62409506 eV  <-- do not rely on this value for anything but (periodic) metals
  | Electronic free energy        :        -323.49048962 Ha       -8802.62409506 eV

  Derived energy quantities:
  | Kinetic energy                :         323.25198136 Ha        8796.13395524 eV
  | Electrostatic energy          :        -604.10463695 Ha      -16438.52355441 eV
  | Energy correction for multipole
  | error in Hartree potential    :           0.03614300 Ha           0.98350118 eV
  | Sum of eigenvalues per atom                           :        -378.56822124 eV
  | Total energy (T->0) per atom                          :        -677.12493039 eV  <-- do not rely on this value for anything but (periodic) metals
  | Electronic free energy per atom                       :        -677.12493039 eV

  Self-consistency convergence accuracy:
  | Change of charge density      :  0.2031E+00
  | Change of sum of eigenvalues  :  0.3638E+02 eV
  | Change of total energy        :  0.3367E+00 eV

  End self-consistency iteration #     3       :  max(cpu_time)    wall_clock(cpu1)
  | Time for this iteration                    :        1.201 s           1.204 s
  | Charge density update                      :        0.394 s           0.396 s
  | Density mixing                             :        0.009 s           0.009 s
  | Hartree multipole update                   :        0.009 s           0.008 s
  | Hartree multipole summation                :        0.283 s           0.284 s
  | Integration                                :        0.504 s           0.504 s
  | Solution of K.-S. eqns.                    :        0.002 s           0.002 s
  | Total energy evaluation                    :        0.000 s           0.000 s

  Partial memory accounting:
  | Current value for overall tracked memory usage on task 0  :           0.166 MB
  | Peak value for overall tracked memory usage on task 0     :           0.695 MB after allocating gradient_basis_wave
  | Largest tracked array allocation on task 0 so far         :           0.397 MB  when allocating gradient_basis_wave
  Note:  These values currently only include a subset of arrays which are explicitly tracked.
  The "true" memory usage will be greater.
------------------------------------------------------------

------------------------------------------------------------
          Begin self-consistency iteration #    4

  Date     :  20200902, Time     :  104542.923
------------------------------------------------------------
  Evaluating new KS density.
  Integration grid: deviation in total charge (<rho> - N_e) =   2.131628E-14
  Pulay mixing of updated and previous charge densities.

  Evaluating partitioned Hartree potential by multipole expansion.
  | Analytical far-field extrapolation by fixed multipoles:
  | Hartree multipole sum: apparent total charge =  -0.568131E-03
  Summing up the Hartree potential.
  Time summed over all CPUs for potential: real work        0.284 s, elapsed        0.284 s
  | RMS charge density error from multipole expansion :   0.256004E-01

  Integrating Hamiltonian matrix: batch-based integration.
  Time summed over all CPUs for integration: real work        0.504 s, elapsed        0.504 s

  Updating Kohn-Sham eigenvalues and eigenvectors using ELSI and the ELPA eigensolver.
  Finished Cholesky decomposition
  | Time :     0.000 s
  Finished transformation to standard eigenproblem
  | Time :     0.000 s
  Starting LAPACK eigensolver
  Finished solving standard eigenproblem
  | Time :     0.002 s
  Finished back-transformation of eigenvectors
  | Time :     0.000 s

  Obtaining occupation numbers and chemical potential using ELSI.
  | Chemical potential (Fermi level):    -2.34193790eV
  Highest occupied state (VBM) at     -5.73900139 eV
  | Occupation number:      2.00000000

  Lowest unoccupied state (CBM) at    -1.05379450 eV
  | Occupation number:      0.00000000

  Overall HOMO-LUMO gap:      4.68520689 eV.

  Total energy components:
  | Sum of eigenvalues            :        -180.76790863 Ha       -4918.94506711 eV
  | XC energy correction          :         -42.67337092 Ha       -1161.20150404 eV
  | XC potential correction       :          54.86452220 Ha        1492.93960908 eV
  | Free-atom electrostatic energy:        -146.81789865 Ha       -3995.11829176 eV
  | Hartree energy correction     :          -8.09476647 Ha        -220.26980276 eV
  | vdW energy correction         :           0.00000000 Ha           0.00000000 eV
  | Entropy correction            :           0.00000000 Ha           0.00000000 eV
  | ---------------------------
  | Total energy                  :        -323.48942247 Ha       -8802.59505659 eV
  | Total energy, T -> 0          :        -323.48942247 Ha       -8802.59505659 eV  <-- do not rely on this value for anything but (periodic) metals
  | Electronic free energy        :        -323.48942247 Ha       -8802.59505659 eV

  Derived energy quantities:
  | Kinetic energy                :         322.84364262 Ha        8785.02249284 eV
  | Electrostatic energy          :        -603.65969418 Ha      -16426.41604539 eV
  | Energy correction for multipole
  | error in Hartree potential    :           0.04023353 Ha           1.09480998 eV
  | Sum of eigenvalues per atom                           :        -378.38038978 eV
  | Total energy (T->0) per atom                          :        -677.12269666 eV  <-- do not rely on this value for anything but (periodic) metals
  | Electronic free energy per atom                       :        -677.12269666 eV

  Self-consistency convergence accuracy:
  | Change of charge density      :  0.6760E-01
  | Change of sum of eigenvalues  :  0.2442E+01 eV
  | Change of total energy        :  0.2904E-01 eV

  End self-consistency iteration #     4       :  max(cpu_time)    wall_clock(cpu1)
  | Time for this iteration                    :        1.201 s           1.212 s
  | Charge density update                      :        0.394 s           0.403 s
  | Density mixing                             :        0.010 s           0.009 s
  | Hartree multipole update                   :        0.009 s           0.009 s
  | Hartree multipole summation                :        0.283 s           0.284 s
  | Integration                                :        0.504 s           0.504 s
  | Solution of K.-S. eqns.                    :        0.002 s           0.003 s
  | Total energy evaluation                    :        0.000 s           0.000 s

  Partial memory accounting:
  | Current value for overall tracked memory usage on task 0  :           0.166 MB
  | Peak value for overall tracked memory usage on task 0     :           0.696 MB after allocating gradient_basis_wave
  | Largest tracked array allocation on task 0 so far         :           0.397 MB  when allocating gradient_basis_wave
  Note:  These values currently only include a subset of arrays which are explicitly tracked.
  The "true" memory usage will be greater.
------------------------------------------------------------

------------------------------------------------------------
          Begin self-consistency iteration #    5

  Date     :  20200902, Time     :  104544.136
------------------------------------------------------------
  Evaluating new KS density.
  Integration grid: deviation in total charge (<rho> - N_e) =  -1.421085E-14
  Pulay mixing of updated and previous charge densities.

  Evaluating partitioned Hartree potential by multipole expansion.
  | Analytical far-field extrapolation by fixed multipoles:
  | Hartree multipole sum: apparent total charge =  -0.563010E-03
  Summing up the Hartree potential.
  Time summed over all CPUs for potential: real work        0.283 s, elapsed        0.283 s
  | RMS charge density error from multipole expansion :   0.253560E-01

  Integrating Hamiltonian matrix: batch-based integration.
  Time summed over all CPUs for integration: real work        0.505 s, elapsed        0.505 s

  Updating Kohn-Sham eigenvalues and eigenvectors using ELSI and the ELPA eigensolver.
  Finished Cholesky decomposition
  | Time :     0.000 s
  Finished transformation to standard eigenproblem
  | Time :     0.000 s
  Starting LAPACK eigensolver
  Finished solving standard eigenproblem
  | Time :     0.001 s
  Finished back-transformation of eigenvectors
  | Time :     0.000 s

  Obtaining occupation numbers and chemical potential using ELSI.
  | Chemical potential (Fermi level):    -2.38008114eV
  Highest occupied state (VBM) at     -5.85156938 eV
  | Occupation number:      2.00000000

  Lowest unoccupied state (CBM) at    -1.12607156 eV
  | Occupation number:      0.00000000

  Overall HOMO-LUMO gap:      4.72549782 eV.

  Total energy components:
  | Sum of eigenvalues            :        -180.91707121 Ha       -4923.00398722 eV
  | XC energy correction          :         -42.65380819 Ha       -1160.66917500 eV
  | XC potential correction       :          54.83916313 Ha        1492.24955348 eV
  | Free-atom electrostatic energy:        -146.81789865 Ha       -3995.11829176 eV
  | Hartree energy correction     :          -7.93950603 Ha        -216.04495120 eV
  | vdW energy correction         :           0.00000000 Ha           0.00000000 eV
  | Entropy correction            :           0.00000000 Ha           0.00000000 eV
  | ---------------------------
  | Total energy                  :        -323.48912095 Ha       -8802.58685170 eV
  | Total energy, T -> 0          :        -323.48912095 Ha       -8802.58685170 eV  <-- do not rely on this value for anything but (periodic) metals
  | Electronic free energy        :        -323.48912095 Ha       -8802.58685170 eV

  Derived energy quantities:
  | Kinetic energy                :         322.75973251 Ha        8782.73918245 eV
  | Electrostatic energy          :        -603.59504527 Ha      -16424.65685915 eV
  | Energy correction for multipole
  | error in Hartree potential    :           0.03966319 Ha           1.07929033 eV
  | Sum of eigenvalues per atom                           :        -378.69261440 eV
  | Total energy (T->0) per atom                          :        -677.12206552 eV  <-- do not rely on this value for anything but (periodic) metals
  | Electronic free energy per atom                       :        -677.12206552 eV

  Self-consistency convergence accuracy:
  | Change of charge density      :  0.2254E-01
  | Change of sum of eigenvalues  : -0.4059E+01 eV
  | Change of total energy        :  0.8205E-02 eV

  End self-consistency iteration #     5       :  max(cpu_time)    wall_clock(cpu1)
  | Time for this iteration                    :        1.203 s           1.205 s
  | Charge density update                      :        0.393 s           0.394 s
  | Density mixing                             :        0.011 s           0.012 s
  | Hartree multipole update                   :        0.009 s           0.008 s
  | Hartree multipole summation                :        0.283 s           0.284 s
  | Integration                                :        0.505 s           0.505 s
  | Solution of K.-S. eqns.                    :        0.002 s           0.002 s
  | Total energy evaluation                    :        0.000 s           0.000 s

  Partial memory accounting:
  | Current value for overall tracked memory usage on task 0  :           0.166 MB
  | Peak value for overall tracked memory usage on task 0     :           0.696 MB after allocating gradient_basis_wave
  | Largest tracked array allocation on task 0 so far         :           0.397 MB  when allocating gradient_basis_wave
  Note:  These values currently only include a subset of arrays which are explicitly tracked.
  The "true" memory usage will be greater.
------------------------------------------------------------

------------------------------------------------------------
          Begin self-consistency iteration #    6

  Date     :  20200902, Time     :  104545.344
------------------------------------------------------------
  Evaluating new KS density.
  Integration grid: deviation in total charge (<rho> - N_e) =   1.421085E-14
  Pulay mixing of updated and previous charge densities.

  Evaluating partitioned Hartree potential by multipole expansion.
  | Analytical far-field extrapolation by fixed multipoles:
  | Hartree multipole sum: apparent total charge =  -0.564573E-03
  Summing up the Hartree potential.
  Time summed over all CPUs for potential: real work        0.283 s, elapsed        0.283 s
  | RMS charge density error from multipole expansion :   0.257001E-01

  Integrating Hamiltonian matrix: batch-based integration.
  Time summed over all CPUs for integration: real work        0.507 s, elapsed        0.507 s

  Updating Kohn-Sham eigenvalues and eigenvectors using ELSI and the ELPA eigensolver.
  Finished Cholesky decomposition
  | Time :     0.000 s
  Finished transformation to standard eigenproblem
  | Time :     0.000 s
  Starting LAPACK eigensolver
  Finished solving standard eigenproblem
  | Time :     0.002 s
  Finished back-transformation of eigenvectors
  | Time :     0.000 s

  Obtaining occupation numbers and chemical potential using ELSI.
  | Chemical potential (Fermi level):    -2.38575624eV
  Highest occupied state (VBM) at     -5.85896772 eV
  | Occupation number:      2.00000000

  Lowest unoccupied state (CBM) at    -1.16303058 eV
  | Occupation number:      0.00000000

  Overall HOMO-LUMO gap:      4.69593715 eV.

  Total energy components:
  | Sum of eigenvalues            :        -180.96293071 Ha       -4924.25188769 eV
  | XC energy correction          :         -42.64824953 Ha       -1160.51791628 eV
  | XC potential correction       :          54.83191302 Ha        1492.05226796 eV
  | Free-atom electrostatic energy:        -146.81789865 Ha       -3995.11829176 eV
  | Hartree energy correction     :          -7.89188933 Ha        -214.74923492 eV
  | vdW energy correction         :           0.00000000 Ha           0.00000000 eV
  | Entropy correction            :           0.00000000 Ha           0.00000000 eV
  | ---------------------------
  | Total energy                  :        -323.48905520 Ha       -8802.58506269 eV
  | Total energy, T -> 0          :        -323.48905520 Ha       -8802.58506269 eV  <-- do not rely on this value for anything but (periodic) metals
  | Electronic free energy        :        -323.48905520 Ha       -8802.58506269 eV

  Derived energy quantities:
  | Kinetic energy                :         322.66717440 Ha        8780.22054803 eV
  | Electrostatic energy          :        -603.50798007 Ha      -16422.28769444 eV
  | Energy correction for multipole
  | error in Hartree potential    :           0.03984275 Ha           1.08417638 eV
  | Sum of eigenvalues per atom                           :        -378.78860675 eV
  | Total energy (T->0) per atom                          :        -677.12192790 eV  <-- do not rely on this value for anything but (periodic) metals
  | Electronic free energy per atom                       :        -677.12192790 eV

  Self-consistency convergence accuracy:
  | Change of charge density      :  0.1073E-01
  | Change of sum of eigenvalues  : -0.1248E+01 eV
  | Change of total energy        :  0.1789E-02 eV

  End self-consistency iteration #     6       :  max(cpu_time)    wall_clock(cpu1)
  | Time for this iteration                    :        1.210 s           1.213 s
  | Charge density update                      :        0.396 s           0.399 s
  | Density mixing                             :        0.012 s           0.012 s
  | Hartree multipole update                   :        0.009 s           0.009 s
  | Hartree multipole summation                :        0.283 s           0.283 s
  | Integration                                :        0.507 s           0.506 s
  | Solution of K.-S. eqns.                    :        0.002 s           0.003 s
  | Total energy evaluation                    :        0.000 s           0.000 s

  Partial memory accounting:
  | Current value for overall tracked memory usage on task 0  :           0.166 MB
  | Peak value for overall tracked memory usage on task 0     :           0.696 MB after allocating gradient_basis_wave
  | Largest tracked array allocation on task 0 so far         :           0.397 MB  when allocating gradient_basis_wave
  Note:  These values currently only include a subset of arrays which are explicitly tracked.
  The "true" memory usage will be greater.
------------------------------------------------------------

------------------------------------------------------------
          Begin self-consistency iteration #    7

  Date     :  20200902, Time     :  104546.559
------------------------------------------------------------
  Evaluating new KS density.
  Integration grid: deviation in total charge (<rho> - N_e) =  -2.842171E-14
  Pulay mixing of updated and previous charge densities.

  Evaluating partitioned Hartree potential by multipole expansion.
  | Analytical far-field extrapolation by fixed multipoles:
  | Hartree multipole sum: apparent total charge =  -0.565498E-03
  Summing up the Hartree potential.
  Time summed over all CPUs for potential: real work        0.287 s, elapsed        0.287 s
  | RMS charge density error from multipole expansion :   0.258432E-01

  Integrating Hamiltonian matrix: batch-based integration.
  Time summed over all CPUs for integration: real work        0.511 s, elapsed        0.511 s

  Updating Kohn-Sham eigenvalues and eigenvectors using ELSI and the ELPA eigensolver.
  Finished Cholesky decomposition
  | Time :     0.000 s
  Finished transformation to standard eigenproblem
  | Time :     0.000 s
  Starting LAPACK eigensolver
  Finished solving standard eigenproblem
  | Time :     0.002 s
  Finished back-transformation of eigenvectors
  | Time :     0.000 s

[...]
  |   Hirshfeld dipole moment :      0.06028253
  |   Hirshfeld second moments:      0.00053852      -0.02803829      -0.01826526
  |                                 -0.02803829      -0.02372511       0.00961201
  |                                 -0.01826526       0.00961201      -0.01720383
  ----------------------------------------------------------------------
  | Atom    12: O
  |   Hirshfeld charge        :     -0.14565725
  |   Free atom volume        :     23.61338643
  |   Hirshfeld volume        :     21.00593515
  |   Hirshfeld dipole vector :      0.01321072       0.04081126      -0.00602725
  |   Hirshfeld dipole moment :      0.04331754
  |   Hirshfeld second moments:      0.08181293      -0.01816142       0.01905119
  |                                 -0.01816142       0.02959220       0.00525429
  |                                  0.01905119       0.00525429       0.05752109
  ----------------------------------------------------------------------
  | Atom    13: H
  |   Hirshfeld charge        :      0.14717518
  |   Free atom volume        :      9.95071624
  |   Hirshfeld volume        :      6.63045343
  |   Hirshfeld dipole vector :     -0.07792645       0.03975767      -0.04392002
  |   Hirshfeld dipole moment :      0.09788857
  |   Hirshfeld second moments:      0.11330697      -0.00780713       0.00430120
  |                                 -0.00780713       0.08093186       0.02342607
  |                                  0.00430120       0.02342607       0.10132810
  ----------------------------------------------------------------------


  Total energy components:
  | Sum of eigenvalues            :        -180.95679539 Ha       -4924.08493733 eV
  | XC energy correction          :         -42.64587870 Ha       -1160.45340267 eV
  | XC potential correction       :          54.82891519 Ha        1491.97069288 eV
  | Free-atom electrostatic energy:        -146.81789865 Ha       -3995.11829176 eV
  | Hartree energy correction     :          -7.89737610 Ha        -214.89853768 eV
  | vdW energy correction         :          -0.00326545 Ha          -0.08885749 eV
  | Entropy correction            :           0.00000000 Ha           0.00000000 eV
  | ---------------------------
  | Total energy                  :        -323.49229912 Ha       -8802.67333406 eV
  | Total energy, T -> 0          :        -323.49229912 Ha       -8802.67333406 eV  <-- do not rely on this value for anything but (periodic) metals
  | Electronic free energy        :        -323.49229912 Ha       -8802.67333406 eV

  Derived energy quantities:
  | Kinetic energy                :         322.62905757 Ha        8779.18333648 eV
  | Electrostatic energy          :        -603.47221254 Ha      -16421.31441037 eV
  | Energy correction for multipole
  | error in Hartree potential    :           0.03990563 Ha           1.08588755 eV
  | Sum of eigenvalues per atom                           :        -378.77576441 eV
  | Total energy (T->0) per atom                          :        -677.12871800 eV  <-- do not rely on this value for anything but (periodic) metals
  | Electronic free energy per atom                       :        -677.12871800 eV

  atomic forces [eV/Ang]:
  -----------------------
  atom #    1
   Hellmann-Feynman              :  0.256373E+00 -0.297018E+00  0.146545E+01
   Ionic forces                  :  0.000000E+00  0.000000E+00  0.000000E+00
   Multipole                     : -0.123911E+00  0.269012E+00 -0.231334E+00
   Pulay + GGA                   : -0.651619E+00  0.270480E+00 -0.157460E+01
   Van der Waals                 :  0.270529E-02  0.131864E-02 -0.128574E-02
   ----------------------------------------------------------------
   Total forces(   1)            : -0.516451E+00  0.243793E+00 -0.341770E+00
  atom #    2
   Hellmann-Feynman              :  0.319854E+00 -0.533573E-01  0.174919E-01
   Ionic forces                  :  0.000000E+00  0.000000E+00  0.000000E+00
   Multipole                     :  0.177073E+00  0.360029E-01 -0.348128E-01
   Pulay + GGA                   : -0.165274E+00  0.332558E-01 -0.202485E-02
   Van der Waals                 :  0.412065E-02 -0.285479E-02 -0.590527E-02
   ----------------------------------------------------------------
   Total forces(   2)            :  0.335774E+00  0.130466E-01 -0.252511E-01
  atom #    3
   Hellmann-Feynman              :  0.760720E+01  0.510173E+01 -0.493697E+01
   Ionic forces                  :  0.000000E+00  0.000000E+00  0.000000E+00
   Multipole                     : -0.190373E+00  0.136010E+00 -0.993469E+00
   Pulay + GGA                   : -0.707245E+01 -0.510336E+01  0.660729E+01
   Van der Waals                 :  0.389871E-02 -0.500505E-02 -0.865922E-02
   ----------------------------------------------------------------
   Total forces(   3)            :  0.348271E+00  0.129369E+00  0.668191E+00
  atom #    4
   Hellmann-Feynman              :  0.367725E-01  0.419854E-01 -0.421109E+00
   Ionic forces                  :  0.000000E+00  0.000000E+00  0.000000E+00
   Multipole                     : -0.607073E-01 -0.764130E-01 -0.557112E-01
   Pulay + GGA                   :  0.156836E+00  0.230418E+00 -0.219810E-01
   Van der Waals                 : -0.287163E-02  0.326452E-02 -0.340676E-04
   ----------------------------------------------------------------
   Total forces(   4)            :  0.130030E+00  0.199255E+00 -0.498835E+00
  atom #    5
   Hellmann-Feynman              : -0.366500E+00  0.757342E-02 -0.126100E+00
   Ionic forces                  :  0.000000E+00  0.000000E+00  0.000000E+00
   Multipole                     : -0.912003E-01  0.122165E-01 -0.463638E-01
   Pulay + GGA                   :  0.241844E+00  0.115024E-03 -0.645080E-01
   Van der Waals                 : -0.110196E-02 -0.294517E-03 -0.932968E-02
   ----------------------------------------------------------------
   Total forces(   5)            : -0.216958E+00  0.196105E-01 -0.246301E+00
  atom #    6
   Hellmann-Feynman              :  0.245281E+00 -0.309025E+00  0.653537E-01
   Ionic forces                  :  0.000000E+00  0.000000E+00  0.000000E+00
   Multipole                     : -0.166778E+00  0.602507E+00  0.281353E+00
   Pulay + GGA                   :  0.222176E+00 -0.673041E+00 -0.414695E+00
   Van der Waals                 : -0.282566E-02  0.374464E-02 -0.391710E-02
   ----------------------------------------------------------------
   Total forces(   6)            :  0.297855E+00 -0.375814E+00 -0.719057E-01
  atom #    7
   Hellmann-Feynman              : -0.266035E+00 -0.593793E-01 -0.360433E-01
   Ionic forces                  :  0.000000E+00  0.000000E+00  0.000000E+00
   Multipole                     : -0.118007E+00  0.497625E-01  0.341305E-01
   Pulay + GGA                   :  0.104715E+00  0.283315E-01  0.466105E-01
   Van der Waals                 : -0.253439E-02  0.115356E-02  0.687211E-02
   ----------------------------------------------------------------
   Total forces(   7)            : -0.281861E+00  0.198684E-01  0.515698E-01
  atom #    8
   Hellmann-Feynman              :  0.597460E-01 -0.690091E-01  0.116629E+00
   Ionic forces                  :  0.000000E+00  0.000000E+00  0.000000E+00
   Multipole                     :  0.123414E-01  0.680329E-01  0.129070E+00
   Pulay + GGA                   : -0.479986E-01 -0.457051E-01 -0.114666E+00
   Van der Waals                 : -0.328489E-02  0.110765E-01  0.759588E-03
   ----------------------------------------------------------------
   Total forces(   8)            :  0.208039E-01 -0.356048E-01  0.131793E+00
  atom #    9
   Hellmann-Feynman              :  0.896616E-01  0.685210E-01 -0.163072E+00
   Ionic forces                  :  0.000000E+00  0.000000E+00  0.000000E+00
   Multipole                     :  0.202367E-01  0.130847E+00 -0.972411E-02
   Pulay + GGA                   : -0.332485E-01 -0.980469E-01  0.405470E-01
   Van der Waals                 : -0.100762E-02  0.566190E-02  0.649829E-02
   ----------------------------------------------------------------
   Total forces(   9)            :  0.756422E-01  0.106984E+00 -0.125751E+00
  atom #   10
   Hellmann-Feynman              :  0.255639E+01  0.453485E+01  0.242770E+01
   Ionic forces                  :  0.000000E+00  0.000000E+00  0.000000E+00
   Multipole                     :  0.672763E-01 -0.329232E-01  0.188796E+00
   Pulay + GGA                   : -0.110570E+01 -0.318947E+01 -0.333444E+00
   Van der Waals                 :  0.476437E-02 -0.162492E-01  0.577285E-02
   ----------------------------------------------------------------
   Total forces(  10)            :  0.152273E+01  0.129621E+01  0.228883E+01
  atom #   11
   Hellmann-Feynman              :  0.400578E+01 -0.242574E+01  0.141978E+02
   Ionic forces                  :  0.000000E+00  0.000000E+00  0.000000E+00
   Multipole                     : -0.137533E-01 -0.455683E+00  0.881379E+00
   Pulay + GGA                   : -0.296037E+01  0.331110E+01 -0.141779E+02
   Van der Waals                 : -0.411735E-03 -0.121649E-01  0.570072E-02
   ----------------------------------------------------------------
   Total forces(  11)            :  0.103125E+01  0.417509E+00  0.907021E+00
  atom #   12
   Hellmann-Feynman              : -0.244248E+01 -0.146478E+02 -0.104270E+01
   Ionic forces                  :  0.000000E+00  0.000000E+00  0.000000E+00
   Multipole                     : -0.944399E+00 -0.155090E+01  0.897534E-01
   Pulay + GGA                   :  0.130890E+01  0.145513E+02 -0.592791E+00
   Van der Waals                 : -0.246443E-03  0.621124E-02  0.459743E-02
   ----------------------------------------------------------------
   Total forces(  12)            : -0.207823E+01 -0.164124E+01 -0.154114E+01
  atom #   13
   Hellmann-Feynman              : -0.785122E+00 -0.193241E+00 -0.141696E+01
   Ionic forces                  :  0.000000E+00  0.000000E+00  0.000000E+00
   Multipole                     : -0.718858E-01  0.721957E-01 -0.481061E-01
   Pulay + GGA                   :  0.185205E+00 -0.274450E+00  0.264251E+00
   Van der Waals                 : -0.120468E-02  0.413742E-02 -0.106991E-02
   ----------------------------------------------------------------
   Total forces(  13)            : -0.673007E+00 -0.391357E+00 -0.120188E+01

  Timings for VdW correction (Tkatchenko-Scheffler 2009 or later):
  | CPU time:        0.093 s, Wall clock time:        0.094 s.
  Removing unitary transformations (pure translations, rotations) from forces on atoms.
  Atomic forces before filtering:
  | Net force on center of mass :  -0.414848E-02  0.163266E-02 -0.543266E-02 eV/A
  | Net torque on center of mass:   0.321877E-02  0.129518E-02 -0.288363E-02 eV
  Atomic forces after filtering:
  | Net force on center of mass :   0.892031E-16  0.133805E-15  0.178406E-15 eV/A
  | Net torque on center of mass:   0.519247E-15 -0.377634E-15  0.755268E-15 eV

  Energy and forces in a compact form:
  | Total energy uncorrected      :         -0.880267333405882E+04 eV
  | Total energy corrected        :         -0.880267333405882E+04 eV  <-- do not rely on this value for anything but (periodic) metals
  | Electronic free energy        :         -0.880267333405882E+04 eV
  Total atomic forces (unitary forces cleaned) [eV/Ang]:
  |   1         -0.516133436982626E+00          0.243708393567789E+00         -0.341328540059230E+00
  |   2          0.336090704715781E+00          0.130592892757202E-01         -0.247493738146647E-01
  |   3          0.348666521144937E+00          0.129124003660652E+00          0.668605920785717E+00
  |   4          0.130528702757457E+00          0.198974066289315E+00         -0.498346969124749E+00
  |   5         -0.216604124619095E+00          0.192821618546109E-01         -0.245976865776787E+00
  |   6          0.298018386474874E+00         -0.375883257923497E+00         -0.715967450759852E-01
  |   7         -0.281700619336482E+00          0.197030055422965E-01          0.518160033544936E-01
  |   8          0.209095507556914E-01         -0.355559359299161E-01          0.132121182537709E+00
  |   9          0.757536554257637E-01          0.106905042845183E+00         -0.125496669380002E+00
  |  10          0.152312313111704E+01          0.129615018965908E+01          0.228935557617956E+01
  |  11          0.103159887685375E+01          0.417571422065095E+00          0.907586063671703E+00
  |  12         -0.207772089950641E+01         -0.164141331733772E+01         -0.154058333080260E+01
  |  13         -0.672530448800683E+00         -0.391625063568610E+00         -0.120140625249517E+01

  ------------------------------------ 
  Start decomposition of the XC Energy 
  ------------------------------------ 
  X and C from original XC functional choice 
  Hartree-Fock Energy :          0.000000000 Ha              0.000000000 eV
  X Energy            :        -41.042684211 Ha          -1116.828260986 eV
  C Energy            :         -1.603194490 Ha            -43.625141684 eV
  Total XC Energy     :        -42.645878701 Ha          -1160.453402669 eV
  ------------------------------------ 
  LDA X and C from self-consistent density 
  X Energy LDA        :        -37.264952637 Ha          -1014.030954580 eV
  C Energy LDA        :         -3.139334277 Ha            -85.425632098 eV
  ------------------------------------ 
  End decomposition of the XC Energy 
  ------------------------------------ 

------------------------------------------------------------

------------------------------------------------------------------------------
  Final output of selected total energy values:

  The following output summarizes some interesting total energy values
  at the end of a run (AFTER all relaxation, molecular dynamics, etc.).

  | Total energy of the DFT / Hartree-Fock s.c.f. calculation      :          -8802.673334059 eV
  | Final zero-broadening corrected energy (caution - metals only) :          -8802.673334059 eV
  | For reference only, the value of 1 Hartree used in FHI-aims is :             27.211384500 eV

  Before relying on these values, please be sure to understand exactly which
  total energy value is referred to by a given number. Different objects may
  all carry the same name 'total energy'. Definitions:

  Total energy of the DFT / Hartree-Fock s.c.f. calculation:
  | Note that this energy does not include ANY quantities calculated after the
  | s.c.f. cycle, in particular not ANY RPA, MP2, etc. many-body perturbation terms.

  Final zero-broadening corrected energy:
  | For metallic systems only, a broadening of the occupation numbers at the Fermi
  | level can be extrapolated back to zero broadening by an electron-gas inspired
  | formula. For all systems that are not real metals, this value can be
  | meaningless and should be avoided.

------------------------------------------------------------------------------
  Methods described in the following list of references were used in this FHI-aims run.
  If you publish the results, please make sure to cite these reference if they apply.
  FHI-aims is an academic code, and for our developers (often, Ph.D. students
  and postdocs), scientific credit in the community is essential.
  Thank you for helping us!

  For any use of FHI-aims, please cite:

    Volker Blum, Ralf Gehrke, Felix Hanke, Paula Havu, Ville Havu,
    Xinguo Ren, Karsten Reuter, and Matthias Scheffler
    'Ab initio molecular simulations with numeric atom-centered orbitals'
    Computer Physics Communications 180, 2175-2196 (2009)
    http://dx.doi.org/10.1016/j.cpc.2009.06.022


  The scalable eigensolver library ELPA was used in your run.
  ELPA is essential especially for large systems on hundreds or thousands of CPUs.
  For ELPA, please cite:

    Andreas Marek, Volker Blum, Rainer Johanni, Ville Havu, Bruno Lang,
    Thomas Auckenthaler, Alexander Heinecke, Hans-Joachim Bungartz, and Hermann Lederer,
    'The ELPA Library - Scalable Parallel Eigenvalue Solutions
    for Electronic Structure Theory and Computational Science'
    The Journal of Physics: Condensed Matter 26, 213201 (2014).
    http://dx.doi.org/10.1088/0953-8984/26/21/213201


  The ELSI infrastructure was used in your run to solve the Kohn-Sham electronic structure.
  Please check out http://elsi-interchange.org to learn more.
  If scalability is important for your project, please acknowledge ELSI by citing:

    V. W-z. Yu, F. Corsetti, A. Garcia, W. P. Huhn, M. Jacquelin, W. Jia,
    B. Lange, L. Lin, J. Lu, W. Mi, A. Seifitokaldani, A. Vazquez-Mayagoitia,
    C. Yang, H. Yang, and V. Blum
    'ELSI: A unified software interface for Kohn-Sham electronic structure solvers'
    Computer Physics Communications 222, 267-285 (2018).
    http://dx.doi.org/10.1016/j.cpc.2017.09.007


  For the real-space grid partitioning and parallelization used in this calculation, please cite:

    Ville Havu, Volker Blum, Paula Havu, and Matthias Scheffler,
    'Efficient O(N) integration for all-electron electronic structure calculation'
    'using numerically tabulated basis functions'
    Journal of Computational Physics 228, 8367-8379 (2009).
    http://dx.doi.org/10.1016/j.jcp.2009.08.008

  Of course, there are many other important community references, e.g., those cited in the
  above references. Our list is limited to references that describe implementations in the
  FHI-aims code. The reason is purely practical (length of this list) - please credit others as well.

------------------------------------------------------------
          Leaving FHI-aims.
          Date     :  20200902, Time     :  104601.150

          Computational steps:
          | Number of self-consistency cycles          :           16
          | Number of SCF (re)initializations          :            1

          Detailed time accounting                     :  max(cpu_time)    wall_clock(cpu1)
          | Total time                                 :       23.073 s          23.191 s
          | Preparation time                           :        0.152 s           0.155 s
          | Boundary condition initalization           :        0.000 s           0.001 s
          | Grid partitioning                          :        0.113 s           0.114 s
          | Preloading free-atom quantities on grid    :        0.002 s           0.002 s
          | Free-atom superposition energy             :        0.085 s           0.084 s
          | Total time for integrations                :        8.834 s           8.847 s
          | Total time for solution of K.-S. equations :        0.037 s           0.041 s
          | Total time for density & force components  :        7.295 s           7.334 s
          | Total time for mixing                      :        0.224 s           0.226 s
          | Total time for Hartree multipole update    :        0.139 s           0.139 s
          | Total time for Hartree multipole sum       :        5.787 s           5.807 s
          | Total time for total energy evaluation     :        0.003 s           0.006 s
          | Total time for vdW correction              :        0.093 s           0.094 s

          Partial memory accounting:
          | Residual value for overall tracked memory usage across tasks :           0.000 MB (should be 0.000 MB)
          | Peak values for overall tracked memory usage (after allocating hessian_basis_wave):
          |   Minimum:        1.622 MB (on task 1)
          |   Maximum:        1.622 MB (on task 1)
          |   Average:        1.622 MB
          | Largest tracked array allocation (hessian_basis_wave):
          |   Minimum:        0.794 MB (on task 1)
          |   Maximum:        0.794 MB (on task 1)
          |   Average:        0.794 MB
          Note:  These values currently only include a subset of arrays which are explicitly tracked.
          The "true" memory usage will be greater.

          Have a nice day.
------------------------------------------------------------
