  MPI-parallelism will be employed.
------------------------------------------------------------
          Invoking FHI-aims ...
          Version 171221_1
          Compiled on 2019/09/09 at 14:39:39 on host puhti-login2.bullx.

          When using FHI-aims, please cite the following reference:

          Volker Blum, Ralf Gehrke, Felix Hanke, Paula Havu,
          Ville Havu, Xinguo Ren, Karsten Reuter, and Matthias Scheffler,
          'Ab Initio Molecular Simulations with Numeric Atom-Centered Orbitals',
          Computer Physics Communications 180, 2175-2196 (2009)

          For any questions about FHI-aims, please visit the aimsclub website
          with its forums and wiki. Contributions to both the forums and the
          wiki are warmly encouraged - they are for you, and everyone is welcome there.

------------------------------------------------------------



  Date     :  20200805, Time     :  184638.698
  Time zero on CPU 1             :   0.119280000000000E-01  s.
  Internal wall clock time zero  :           365885198.698  s.

  FHI-aims created a unique identifier for this run for later identification
  aims_uuid : EADDF993-394C-4020-AD7B-8C57E3C81DDC

  Using        1 parallel tasks.
  Task        0 on host r18c29.bullx reporting.

  Performing system and environment tests:
  | Environment variable OMP_NUM_THREADS correctly set to 1.
  | Stacksize not measured: no C compiler
  | Checking for scalapack...
  | Testing pdtran()...
  | All pdtran() tests passed.

  Obtaining array dimensions for all initial allocations:
  
  -----------------------------------------------------------------------
  Parsing control.in (first pass over file, find array dimensions only).
  The contents of control.in will be repeated verbatim below
  unless switched off by setting 'verbatim_writeout .false.' .
  in the first line of control.in .
  -----------------------------------------------------------------------
  
  #########################################################################################
  #
  #  Volker Blum, FHI 2009 : Test run input file control.in for simple H2O
  #
  #########################################################################################
  #
  #  Physical model
  #
    xc                 pbe
    vdw_correction_hirshfeld
    spin               none
    relativistic       none
    charge             0.
  #
  #  SCF convergence
  #
    occupation_type    gaussian 0.01
    mixer              pulay
      n_max_pulay        10
      charge_mix_param   0.2
    sc_accuracy_rho    1E-5
    sc_accuracy_eev    1E-3
    sc_accuracy_etot   1E-6
    sc_accuracy_forces 1E-4
    sc_iter_limit      100
  #
  #  Relaxation
  #
  #  relax_geometry   bfgs 1.e-3
  #
  ################################################################################
  #
  #  FHI-aims code project
  #  VB, Fritz-Haber Institut, 2009
  #
  #  Suggested "light" defaults for H atom (to be pasted into control.in file)
  #  Be sure to double-check any results obtained with these settings for post-processing,
  #  e.g., with the "tight" defaults and larger basis sets.
  #
  ################################################################################
    species        H
  #     global species definitions
      nucleus             1
      mass                1.00794
  #
      l_hartree           4
  #
      cut_pot             3.5  1.5  1.0
      basis_dep_cutoff    1e-4
  #
      radial_base         24 5.0
      radial_multiplier   1
      angular_grids       specified
        division   0.2421   50
        division   0.3822  110
        division   0.4799  194
        division   0.5341  302
  #      division   0.5626  434
  #      division   0.5922  590
  #      division   0.6542  770
  #      division   0.6868 1202
  #      outer_grid  770
        outer_grid  302
  ################################################################################
  #
  #  Definition of "minimal" basis
  #
  ################################################################################
  #     valence basis states
      valence      1  s   1.
  #     ion occupancy
      ion_occ      1  s   0.5
  ################################################################################
  #
  #  Suggested additional basis functions. For production calculations,
  #  uncomment them one after another (the most important basis functions are
  #  listed first).
  #
  #  Basis constructed for dimers: 0.5 A, 0.7 A, 1.0 A, 1.5 A, 2.5 A
  #
  ################################################################################
  #  "First tier" - improvements: -1014.90 meV to -62.69 meV
       hydro 2 s 2.1
       hydro 2 p 3.5
  #  "Second tier" - improvements: -12.89 meV to -1.83 meV
  #     hydro 1 s 0.85
  #     hydro 2 p 3.7
  #     hydro 2 s 1.2
  #     hydro 3 d 7
  #  "Third tier" - improvements: -0.25 meV to -0.12 meV
  #     hydro 4 f 11.2
  #     hydro 3 p 4.8
  #     hydro 4 d 9
  #     hydro 3 s 3.2
  ################################################################################
  #
  #  FHI-aims code project
  #  VB, Fritz-Haber Institut, 2009
  #
  #  Suggested "light" defaults for C atom (to be pasted into control.in file)
  #  Be sure to double-check any results obtained with these settings for post-processing,
  #  e.g., with the "tight" defaults and larger basis sets.
  #
  ################################################################################
    species        C
  #     global species definitions
      nucleus             6
      mass                12.0107
  #
      l_hartree           4
  #
      cut_pot             3.5  1.5  1.0
      basis_dep_cutoff    1e-4
  #
      radial_base         34 5.0
      radial_multiplier   1
      angular_grids specified
        division   0.3326   50
        division   0.5710  110
        division   0.7727  194
        division   0.8772  302
  #      division   0.9334  434
  #      division   0.9625  590
  #      division   0.9924  770
  #      division   1.0230  974
  #      division   1.4589 1202
  #     outer_grid  974
       outer_grid 302
  ################################################################################
  #
  #  Definition of "minimal" basis
  #
  ################################################################################
  #     valence basis states
      valence      2  s   2.
      valence      2  p   2.
  #     ion occupancy
      ion_occ      2  s   1.
      ion_occ      2  p   1.
  ################################################################################
  #
  #  Suggested additional basis functions. For production calculations,
  #  uncomment them one after another (the most important basis functions are
  #  listed first).
  #
  #  Constructed for dimers: 1.0 A, 1.25 A, 1.5 A, 2.0 A, 3.0 A
  #
  ################################################################################
  #  "First tier" - improvements: -1214.57 meV to -155.61 meV
       hydro 2 p 1.7
       hydro 3 d 6
       hydro 2 s 4.9
  #  "Second tier" - improvements: -67.75 meV to -5.23 meV
  #     hydro 4 f 9.8
  #     hydro 3 p 5.2
  #     hydro 3 s 4.3
  #     hydro 5 g 14.4
  #     hydro 3 d 6.2
  #  "Third tier" - improvements: -2.43 meV to -0.60 meV
  #     hydro 2 p 5.6
  #     hydro 2 s 1.4
  #     hydro 3 d 4.9
  #     hydro 4 f 11.2
  #  "Fourth tier" - improvements: -0.39 meV to -0.18 meV
  #     hydro 2 p 2.1
  #     hydro 5 g 16.4
  #     hydro 4 d 13.2
  #     hydro 3 s 13.6
  #     hydro 4 f 17.6
  #  Further basis functions - improvements: -0.08 meV and below
  #     hydro 3 s 2
  #     hydro 3 p 6
  #     hydro 4 d 20
  ################################################################################
  #
  #  FHI-aims code project
  #  VB, Fritz-Haber Institut, 2009
  #
  #  Suggested "light" defaults for N atom (to be pasted into control.in file)
  #  Be sure to double-check any results obtained with these settings for post-processing,
  #  e.g., with the "tight" defaults and larger basis sets.
  #
  ################################################################################
    species        N
  #     global species definitions
      nucleus             7
      mass                14.0067
  #
      l_hartree           4
  #
      cut_pot             3.5  1.5  1.0
      basis_dep_cutoff    1e-4
  #
      radial_base         35 5.0
      radial_multiplier   1
      angular_grids       specified
        division   0.2599   50
        division   0.4601  110
        division   0.5885  194
        division   0.6503  302
  #      division   0.6939  434
  #      division   0.7396  590
  #      division   0.7632  770
  #      division   0.8122  974
  #      division   1.1604 1202
  #      outer_grid  974
        outer_grid  302
  ################################################################################
  #
  #  Definition of "minimal" basis
  #
  ################################################################################
  #     valence basis states
      valence      2  s   2.
      valence      2  p   3.
  #     ion occupancy
      ion_occ      2  s   1.
      ion_occ      2  p   2.
  ################################################################################
  #
  #  Suggested additional basis functions. For production calculations,
  #  uncomment them one after another (the most important basis functions are
  #  listed first).
  #
  #  Constructed for dimers: 1.0 A, 1.1 A, 1.5 A, 2.0 A, 3.0 A
  #
  ################################################################################
  #  "First tier" - improvements: -1193.42 meV to -220.60 meV
       hydro 2 p 1.8
       hydro 3 d 6.8
       hydro 3 s 5.8
  #  "Second tier" - improvements: -80.21 meV to -6.86 meV
  #     hydro 4 f 10.8
  #     hydro 3 p 5.8
  #     hydro 1 s 0.8
  #     hydro 5 g 16
  #     hydro 3 d 4.9
  #  "Third tier" - improvements: -4.29 meV to -0.53 meV
  #     hydro 3 s 16
  #     ionic 2 p auto
  #     hydro 3 d 6.6
  #     hydro 4 f 11.6
  #  "Fourth tier" - improvements: -0.75 meV to -0.25 meV
  #     hydro 2 p 4.5
  #     hydro 2 s 2.4
  #     hydro 5 g 14.4
  #     hydro 4 d 14.4
  #     hydro 4 f 16.8
  # Further basis functions - -0.21 meV and below
  #     hydro 3 p 14.8
  #     hydro 3 s 4.4
  #     hydro 3 d 19.6
  #     hydro 5 g 12.8
  ################################################################################
  #
  #  FHI-aims code project
  #  VB, Fritz-Haber Institut, 2009
  #
  #  Suggested "light" defaults for O atom (to be pasted into control.in file)
  #  Be sure to double-check any results obtained with these settings for post-processing,
  #  e.g., with the "tight" defaults and larger basis sets.
  #
  ################################################################################
    species        O
  #     global species definitions
      nucleus             8
      mass                15.9994
  #
      l_hartree           4
  #
      cut_pot             3.5  1.5  1.0
      basis_dep_cutoff    1e-4
  #
      radial_base         36 5.0
      radial_multiplier   1
       angular_grids specified
        division   0.2659   50
        division   0.4451  110
        division   0.6052  194
        division   0.7543  302
  #      division   0.8014  434
  #      division   0.8507  590
  #      division   0.8762  770
  #      division   0.9023  974
  #      division   1.2339 1202
  #      outer_grid 974
        outer_grid 302
  ################################################################################
  #
  #  Definition of "minimal" basis
  #
  ################################################################################
  #     valence basis states
      valence      2  s   2.
      valence      2  p   4.
  #     ion occupancy
      ion_occ      2  s   1.
      ion_occ      2  p   3.
  ################################################################################
  #
  #  Suggested additional basis functions. For production calculations,
  #  uncomment them one after another (the most important basis functions are
  #  listed first).
  #
  #  Constructed for dimers: 1.0 A, 1.208 A, 1.5 A, 2.0 A, 3.0 A
  #
  ################################################################################
  #  "First tier" - improvements: -699.05 meV to -159.38 meV
       hydro 2 p 1.8
       hydro 3 d 7.6
       hydro 3 s 6.4
  #  "Second tier" - improvements: -49.91 meV to -5.39 meV
  #     hydro 4 f 11.6
  #     hydro 3 p 6.2
  #     hydro 3 d 5.6
  #     hydro 5 g 17.6
  #     hydro 1 s 0.75
  #  "Third tier" - improvements: -2.83 meV to -0.50 meV
  #     ionic 2 p auto
  #     hydro 4 f 10.8
  #     hydro 4 d 4.7
  #     hydro 2 s 6.8
  #  "Fourth tier" - improvements: -0.40 meV to -0.12 meV
  #     hydro 3 p 5
  #     hydro 3 s 3.3
  #     hydro 5 g 15.6
  #     hydro 4 f 17.6
  #     hydro 4 d 14
  # Further basis functions - -0.08 meV and below
  #     hydro 3 s 2.1
  #     hydro 4 d 11.6
  #     hydro 3 p 16
  #     hydro 2 s 17.2
  
  -----------------------------------------------------------------------
  Completed first pass over input file control.in .
  -----------------------------------------------------------------------
  
  
  -----------------------------------------------------------------------
  Parsing geometry.in (first pass over file, find array dimensions only).
  The contents of geometry.in will be repeated verbatim below
  unless switched off by setting 'verbatim_writeout .false.' .
  in the first line of geometry.in .
  -----------------------------------------------------------------------
  
  atom  0.00000 0.00000 0.00000 C
  atom  1.09300 0.00000 0.00000 H
  atom  -0.47961 0.00000 -1.41207 N
  atom  -0.14255 0.84658 -1.87199 H
  atom  -0.11305 -0.82531 -1.88177 H
  atom  -0.49584 1.26211 0.72868 C
  atom  -1.58789 1.28919 0.74431 H
  atom  -0.13407 1.27425 1.75947 H
  atom  -0.13407 2.16087 0.22380 H
  atom  -0.39425 -1.28861 0.74398 C
  atom  -0.10189 -1.56493 1.88303 O
  atom  -1.10210 -2.13717 0.06896 O
  atom  -0.92670 -2.92774 0.60675 H
  
  -----------------------------------------------------------------------
  Completed first pass over input file geometry.in .
  -----------------------------------------------------------------------
  

  Basic array size parameters:
  | Number of species                 :        4
  | Number of atoms                   :       13
  | Max. basis fn. angular momentum   :        2
  | Max. atomic/ionic basis occupied n:        2
  | Max. number of basis fn. types    :        2
  | Max. radial fns per species/type  :        3
  | Max. logarithmic grid size        :     1301
  | Max. radial integration grid size :       36
  | Max. angular integration grid size:      302
  | Max. angular grid division number :        8
  | Radial grid for Hartree potential :     1301
  | Number of spin channels           :        1

------------------------------------------------------------
          Reading file control.in.
------------------------------------------------------------
  XC: Using PBE gradient-corrected functionals.
  Spin treatment: No spin polarisation.
  Non-relativistic treatment of kinetic energy.
  Charge =   0.000000E+00: Neutral system requested explicitly.
  Occupation type: Gaussian broadening, width =   0.100000E-01 eV.
  Using pulay charge density mixing.
  Pulay mixing - number of memorized iterations:   10
  Charge density mixing - mixing parameter:     0.2000
  Convergence accuracy of self-consistent charge density:  0.1000E-04
  Convergence accuracy of sum of eigenvalues:  0.1000E-02
  Convergence accuracy of total energy:  0.1000E-05
  Convergence accuracy of forces:  0.1000E-03
  Maximum number of s.-c. iterations  :   100
 
  Reading configuration options for species H                   .
  | Found nuclear charge :   1.0000
  | Found atomic mass :    1.00794000000000      amu
  | Found l_max for Hartree potential  :   4
  | Found cutoff potl. onset [A], width [A], scale factor :    3.50000    1.50000    1.00000
  | Threshold for basis-dependent cutoff potential is   0.100000E-03
  | Found data for basic radial integration grid :    24 points, outermost radius =    5.000 A
  | Found multiplier for basic radial grid :   1
  | Found angular grid specification: user-specified.
  | Specified grid contains     5 separate shells.
  | Check grid settings after all constraints further below.
  | Found free-atom valence shell :  1 s   1.000
  | No ionic wave fns used. Skipping ion_occ.
  | Found hydrogenic basis function :  2 s   2.100
  | Found hydrogenic basis function :  2 p   3.500
  Species H                   : Missing cutoff potential type.
  Defaulting to exp(1/x)/(1-x)^2 type cutoff potential.
  Species H : No 'logarithmic' tag. Using default grid for free atom:
  | Default logarithmic grid data [bohr] : 0.1000E-03 0.1000E+03 0.1012E+01
  Species H : On-site basis accuracy parameter (for Gram-Schmidt orthonormalisation) not specified.
  Using default value basis_acc =  0.1000000E-03.
  Species H                   : Using default innermost maximum threshold i_radial=  2 for radial functions.
  Species H                   : Default cutoff onset for free atom density etc. : 0.35000000E+01 AA.
  Species H                   : Basic radial grid will be enhanced according to radial_multiplier =   1, to contain    24 grid points.
 
  Reading configuration options for species C                   .
  | Found nuclear charge :   6.0000
  | Found atomic mass :    12.0107000000000      amu
  | Found l_max for Hartree potential  :   4
  | Found cutoff potl. onset [A], width [A], scale factor :    3.50000    1.50000    1.00000
  | Threshold for basis-dependent cutoff potential is   0.100000E-03
  | Found data for basic radial integration grid :    34 points, outermost radius =    5.000 A
  | Found multiplier for basic radial grid :   1
  | Found angular grid specification: user-specified.
  | Specified grid contains     5 separate shells.
  | Check grid settings after all constraints further below.
  | Found free-atom valence shell :  2 s   2.000
  | Found free-atom valence shell :  2 p   2.000
  | No ionic wave fns used. Skipping ion_occ.
  | No ionic wave fns used. Skipping ion_occ.
  | Found hydrogenic basis function :  2 p   1.700
  | Found hydrogenic basis function :  3 d   6.000
  | Found hydrogenic basis function :  2 s   4.900
  Species C                   : Missing cutoff potential type.
  Defaulting to exp(1/x)/(1-x)^2 type cutoff potential.
  Species C : No 'logarithmic' tag. Using default grid for free atom:
  | Default logarithmic grid data [bohr] : 0.1000E-03 0.1000E+03 0.1012E+01
  Species C : On-site basis accuracy parameter (for Gram-Schmidt orthonormalisation) not specified.
  Using default value basis_acc =  0.1000000E-03.
  Species C                   : Using default innermost maximum threshold i_radial=  2 for radial functions.
  Species C                   : Default cutoff onset for free atom density etc. : 0.35000000E+01 AA.
  Species C                   : Basic radial grid will be enhanced according to radial_multiplier =   1, to contain    34 grid points.
 
  Reading configuration options for species N                   .
  | Found nuclear charge :   7.0000
  | Found atomic mass :    14.0067000000000      amu
  | Found l_max for Hartree potential  :   4
  | Found cutoff potl. onset [A], width [A], scale factor :    3.50000    1.50000    1.00000
  | Threshold for basis-dependent cutoff potential is   0.100000E-03
  | Found data for basic radial integration grid :    35 points, outermost radius =    5.000 A
  | Found multiplier for basic radial grid :   1
  | Found angular grid specification: user-specified.
  | Specified grid contains     5 separate shells.
  | Check grid settings after all constraints further below.
  | Found free-atom valence shell :  2 s   2.000
  | Found free-atom valence shell :  2 p   3.000
  | No ionic wave fns used. Skipping ion_occ.
  | No ionic wave fns used. Skipping ion_occ.
  | Found hydrogenic basis function :  2 p   1.800
  | Found hydrogenic basis function :  3 d   6.800
  | Found hydrogenic basis function :  3 s   5.800
  Species N                   : Missing cutoff potential type.
  Defaulting to exp(1/x)/(1-x)^2 type cutoff potential.
  Species N : No 'logarithmic' tag. Using default grid for free atom:
  | Default logarithmic grid data [bohr] : 0.1000E-03 0.1000E+03 0.1012E+01
  Species N : On-site basis accuracy parameter (for Gram-Schmidt orthonormalisation) not specified.
  Using default value basis_acc =  0.1000000E-03.
  Species N                   : Using default innermost maximum threshold i_radial=  2 for radial functions.
  Species N                   : Default cutoff onset for free atom density etc. : 0.35000000E+01 AA.
  Species N                   : Basic radial grid will be enhanced according to radial_multiplier =   1, to contain    35 grid points.
 
  Reading configuration options for species O                   .
  | Found nuclear charge :   8.0000
  | Found atomic mass :    15.9994000000000      amu
  | Found l_max for Hartree potential  :   4
  | Found cutoff potl. onset [A], width [A], scale factor :    3.50000    1.50000    1.00000
  | Threshold for basis-dependent cutoff potential is   0.100000E-03
  | Found data for basic radial integration grid :    36 points, outermost radius =    5.000 A
  | Found multiplier for basic radial grid :   1
  | Found angular grid specification: user-specified.
  | Specified grid contains     5 separate shells.
  | Check grid settings after all constraints further below.
  | Found free-atom valence shell :  2 s   2.000
  | Found free-atom valence shell :  2 p   4.000
  | No ionic wave fns used. Skipping ion_occ.
  | No ionic wave fns used. Skipping ion_occ.
  | Found hydrogenic basis function :  2 p   1.800
  | Found hydrogenic basis function :  3 d   7.600
  | Found hydrogenic basis function :  3 s   6.400
  Species O                   : Missing cutoff potential type.
  Defaulting to exp(1/x)/(1-x)^2 type cutoff potential.
  Species O : No 'logarithmic' tag. Using default grid for free atom:
  | Default logarithmic grid data [bohr] : 0.1000E-03 0.1000E+03 0.1012E+01
  Species O : On-site basis accuracy parameter (for Gram-Schmidt orthonormalisation) not specified.
  Using default value basis_acc =  0.1000000E-03.
  Species O                   : Using default innermost maximum threshold i_radial=  2 for radial functions.
  Species O                   : Default cutoff onset for free atom density etc. : 0.35000000E+01 AA.
  Species O                   : Basic radial grid will be enhanced according to radial_multiplier =   1, to contain    36 grid points.
 
  Finished reading input file 'control.in'. Consistency checks are next.
 
  MPI_IN_PLACE appears to work with this MPI implementation.
  | Keeping use_mpi_in_place .true. (see manual).
  Target number of points in a grid batch is not set. Defaulting to  100
  Method for grid partitioning is not set. Defaulting to parallel hash+maxmin partitioning.
  Batch size limit is not set. Defaulting to    200
  By default, will store active basis functions for each batch.
  If in need of memory, prune_basis_once .false. can be used to disable this option.
  communication_type for Hartree potential was not specified.
  Defaulting to calc_hartree .
  Pulay mixer: Number of initial linear mixing iterations not set.
  Defaulting to    0 iterations.
  Work space size for distributed Hartree potential not set.
  Defaulting to   0.200000E+03 MB.
  Algorithm-dependent basis array size parameters:
  | n_max_pulay                         :       10
  Presetting      1001 iterations before the initial mixing cycle
  is restarted anyway using the sc_init_iter criterion / keyword.
  Presetting a factor      1.000 between actual scf density residual
  and density convergence criterion sc_accuracy_rho below which sc_init_iter
  takes no effect.
  Geometry relaxation not requested: no relaxation will be performed.
  Handling of forces: Unphysical translation and rotation will be removed from forces.
  No accuracy limit for integral partition fn. given. Defaulting to  0.1000E-14.
  No threshold value for u(r) in integrations given. Defaulting to  0.1000E-05.
  No accuracy for occupation numbers given. Defaulting to  0.1000E-12.
  No threshold value for occupation numbers given. Defaulting to  0.0000E+00.
  No accuracy for fermi level given. Defaulting to  0.1000E-19.
  Maximum # of iterations to find E_F not set. Defaulting to  200.
  Preferred method for the eigenvalue solver ('KS_method') not specified in 'control.in'.
  Defaulting to serial version, 'lapack_fast'.
  Will not use alltoall communication since running on < 1024 CPUs.
  Threshold for basis singularities not set.
  Default threshold for basis singularities:  0.1000E-04
  partition_type (choice of integration weights) for integrals was not specified.
  | Using a version of the partition function of Stratmann and coworkers ('stratmann_smoother').
  | At each grid point, the set of atoms used to build the partition table is smoothly restricted to
  | only those atoms whose free-atom density would be non-zero at that grid point.
  Partitioning for Hartree potential was not defined. Using partition_type for integrals.
  | Adjusted default value of keyword multip_moments_threshold to:       0.10000000E-11
  | This value may affect high angular momentum components of the Hartree potential in periodic systems.
  No q(lm)/r^(l+1) cutoff set for long-range Hartree potential.
  | Using default value of  0.100000E-09 .
  | Verify using the multipole_threshold keyword.
  Defaulting to new monopole extrapolation.
  Density update method: automatic selection selected.
------------------------------------------------------------


------------------------------------------------------------
          Reading geometry description geometry.in.
------------------------------------------------------------
  Input structure read successfully.
  The structure contains       13 atoms,  and a total of         48.000 electrons.

  Input geometry:
  | No unit cell requested.
  | Atomic structure:
  |       Atom                x [A]            y [A]            z [A]
  |    1: Species C             0.00000000        0.00000000        0.00000000
  |    2: Species H             1.09300000        0.00000000        0.00000000
  |    3: Species N            -0.47961000        0.00000000       -1.41207000
  |    4: Species H            -0.14255000        0.84658000       -1.87199000
  |    5: Species H            -0.11305000       -0.82531000       -1.88177000
  |    6: Species C            -0.49584000        1.26211000        0.72868000
  |    7: Species H            -1.58789000        1.28919000        0.74431000
  |    8: Species H            -0.13407000        1.27425000        1.75947000
  |    9: Species H            -0.13407000        2.16087000        0.22380000
  |   10: Species C            -0.39425000       -1.28861000        0.74398000
  |   11: Species O            -0.10189000       -1.56493000        1.88303000
  |   12: Species O            -1.10210000       -2.13717000        0.06896000
  |   13: Species H            -0.92670000       -2.92774000        0.60675000
  |

  | The smallest distance between any two atoms is         0.97210296 AA.
  |
  | The first atom of this pair is atom number                     12 .
  | The second atom of this pair is atom number                    13 .

  Number of empty states per atom not set in control.in - providing a guess from actual geometry.
  | Total number of empty states used during s.c.f. cycle:       29
  If you use a very high smearing, use empty_states (per atom!) in control.in to increase this value.

  Structure-dependent array size parameters: 
  | Maximum number of distinct radial functions  :       21
  | Maximum number of basis functions            :      119
  | Number of Kohn-Sham states (occupied + empty):       53
------------------------------------------------------------

------------------------------------------------------------
          Preparing all fixed parts of the calculation.
------------------------------------------------------------
  Determining machine precision:
    2.225073858507201E-308
  Setting up grids for atomic and cluster calculations.

  Creating wave function, potential, and density for free atoms.

  Species: H

  List of occupied orbitals and eigenvalues:
    n    l              occ      energy [Ha]    energy [eV]
    1    0           1.0000        -0.237589        -6.4651


  Species: C

  List of occupied orbitals and eigenvalues:
    n    l              occ      energy [Ha]    energy [eV]
    1    0           2.0000       -10.038835      -273.1706
    2    0           2.0000        -0.502696       -13.6791
    2    1           2.0000        -0.191971        -5.2238


  Species: N

  List of occupied orbitals and eigenvalues:
    n    l              occ      energy [Ha]    energy [eV]
    1    0           2.0000       -14.128000      -384.4424
    2    0           2.0000        -0.681077       -18.5330
    2    1           3.0000        -0.259788        -7.0692


  Species: O

  List of occupied orbitals and eigenvalues:
    n    l              occ      energy [Ha]    energy [eV]
    1    0           2.0000       -18.898188      -514.2459
    2    0           2.0000        -0.878505       -23.9053
    2    1           4.0000        -0.331779        -9.0282

  Creating fixed part of basis set: Ionic, confined, hydrogenic.
 
  H                    hydrogenic:
 
  List of hydrogenic basis orbitals: 
    n    l      effective z      eigenvalue [eV]  inner max. [A]     outer max. [A]     outer radius [A]   
    2    0         2.100000       -14.9728           0.193243           1.317208           4.583499
    2    1         3.500000       -41.6669           0.602369           0.602369           3.723403
 
 
  C                    hydrogenic:
 
  List of hydrogenic basis orbitals: 
    n    l      effective z      eigenvalue [eV]  inner max. [A]     outer max. [A]     outer radius [A]   
    2    1         1.700000        -9.7616           1.230570           1.230570           4.607917
    3    2         6.000000       -54.4224           0.792453           0.792453           3.883070
    2    0         4.900000       -81.6679           0.082559           0.562749           3.078220
 
 
  N                    hydrogenic:
 
  List of hydrogenic basis orbitals: 
    n    l      effective z      eigenvalue [eV]  inner max. [A]     outer max. [A]     outer radius [A]   
    2    1         1.800000       -10.9749           1.177451           1.177451           4.573712
    3    2         6.800000       -69.9026           0.704619           0.704619           3.538137
    3    0         5.800000       -50.8545           0.067388           1.191934           4.250239
 
 
  O                    hydrogenic:
 
  List of hydrogenic basis orbitals: 
    n    l      effective z      eigenvalue [eV]  inner max. [A]     outer max. [A]     outer radius [A]   
    2    1         1.800000       -10.9749           1.164242           1.164242           4.578029
    3    2         7.600000       -87.3180           0.624125           0.624125           3.251020
    3    0         6.400000       -61.9207           0.061167           1.081902           4.001998
 

  Adding cutoff potential to free-atom effective potential.
  Creating atomic-like basis functions for current effective potential.

  Species H                   :

  List of atomic basis orbitals and eigenvalues:
    n    l      energy [Ha]    energy [eV]    outer radius [A]
    1    0        -0.237589        -6.4651       4.527807


  Species C                   :

  List of atomic basis orbitals and eigenvalues:
    n    l      energy [Ha]    energy [eV]    outer radius [A]
    1    0       -10.038835      -273.1706       1.934409
    2    0        -0.502696       -13.6791       4.496620
    2    1        -0.191971        -5.2238       4.551928


  Species N                   :

  List of atomic basis orbitals and eigenvalues:
    n    l      energy [Ha]    energy [eV]    outer radius [A]
    1    0       -14.128000      -384.4424       1.637919
    2    0        -0.681077       -18.5330       4.463241
    2    1        -0.259788        -7.0692       4.518138


  Species O                   :

  List of atomic basis orbitals and eigenvalues:
    n    l      energy [Ha]    energy [eV]    outer radius [A]
    1    0       -18.898188      -514.2459       1.415765
    2    0        -0.878505       -23.9053       4.413171
    2    1        -0.331779        -9.0282       4.522403

  Assembling full basis from fixed parts.
  | Species H :   atomic orbital   1 s accepted.
  | Species H :    hydro orbital   2 s accepted.
  | Species H :    hydro orbital   2 p accepted.
  | Species C :   atomic orbital   1 s accepted.
  | Species C :    hydro orbital   2 s accepted.
  | Species C :   atomic orbital   2 s accepted.
  | Species C :   atomic orbital   2 p accepted.
  | Species C :    hydro orbital   2 p accepted.
  | Species C :    hydro orbital   3 d accepted.
  | Species N :   atomic orbital   1 s accepted.
  | Species N :    hydro orbital   3 s accepted.
  | Species N :   atomic orbital   2 s accepted.
  | Species N :   atomic orbital   2 p accepted.
  | Species N :    hydro orbital   2 p accepted.
  | Species N :    hydro orbital   3 d accepted.
  | Species O :   atomic orbital   1 s accepted.
  | Species O :    hydro orbital   3 s accepted.
  | Species O :   atomic orbital   2 s accepted.
  | Species O :   atomic orbital   2 p accepted.
  | Species O :    hydro orbital   2 p accepted.
  | Species O :    hydro orbital   3 d accepted.
 
  Basis size parameters after reduction:
  | Total number of radial functions:       21
  | Total number of basis functions :      119
 
  Per-task memory consumption for arrays in subroutine allocate_ext:
  |           5.250512MB.
  Testing on-site integration grid accuracy.
  |  Species  Function  <phi|h_atom|phi> (log., in eV)  <phi|h_atom|phi> (rad., in eV)
           1        1                 -6.4663192853                 -6.4651273558
           1        2                 13.7111246313                 13.7170609718
           1        3                 25.2673269279                 25.2674696378
           2        4               -273.1705927641               -273.1705631568
           2        5                -10.7109323383                -10.7107120029
           2        6                 17.4381822266                 17.4352413244
           2        7                 -5.2255326521                 -5.2270484734
           2        8                  8.6835629259                  8.6603288385
           2        9                 27.4952418996                 27.4953360207
           3       10               -384.4424306495               -384.4423701208
           3       11                 12.5842251816                 12.5842222903
           3       12                -15.7264628251                -15.7264433455
           3       13                 -7.0696854293                 -7.0701769954
           3       14                  8.8090390882                  8.7901077751
           3       15                 35.9586762123                 35.9588528632
           4       16               -514.2458688638               -514.2457643834
           4       17                 15.1795651126                 15.1795290741
           4       18                -21.5359799773                -21.5360846186
           4       19                 -9.0283069236                 -9.0284644067
           4       20                  8.3027758564                  8.2834874195
           4       21                 45.8339351984                 45.8338762259

  Preparing densities etc. for the partition functions (integrals / Hartree potential).

  Preparations completed.
  max(cpu_time)          :      0.147 s.
  Wall clock time (cpu1) :      0.148 s.
------------------------------------------------------------

------------------------------------------------------------
          Begin self-consistency loop: Initialization.

          Date     :  20200805, Time     :  184638.862
------------------------------------------------------------

  Initializing index lists of integration centers etc. from given atomic structure:
  | Number of centers in hartree potential         :        13
  | Number of centers in hartree multipole         :        13
  | Number of centers in electron density summation:        13
  | Number of centers in basis integrals           :        13
  | Number of centers in integrals                 :        13
  | Number of centers in hamiltonian               :        13
  Partitioning the integration grid into batches with parallel hashing+maxmin method.
  | Number of batches:      948
  | Maximal batch size:     139
  | Minimal batch size:      66
  | Average batch size:      73.466
  | Standard deviation of batch sizes:      18.493

  Integration load balanced across     1 MPI tasks.
  Work distribution over tasks is as follows:
  Task     0 has      69646 integration points.
  Initializing partition tables, free-atom densities, potentials, etc. across the integration grid (initialize_grid_storage).
  | initialize_grid_storage: Actual outermost partition radius vs. multipole_radius_free
  | (-- VB: in principle, multipole_radius_free should be larger, hence this output)
  | Species        1: Confinement radius =              4.999999999999999 AA, multipole_radius_free =              5.054417573612229 AA.
  | Species        1: outer_partition_radius set to              5.054417573612229 AA .
  | Species        2: Confinement radius =              4.999999999999999 AA, multipole_radius_free =              5.019602836301480 AA.
  | Species        2: outer_partition_radius set to              5.019602836301480 AA .
  | Species        3: Confinement radius =              4.999999999999999 AA, multipole_radius_free =              5.043624274424571 AA.
  | Species        3: outer_partition_radius set to              5.043624274424571 AA .
  | Species        4: Confinement radius =              4.999999999999999 AA, multipole_radius_free =              5.048384829883283 AA.
  | Species        4: outer_partition_radius set to              5.048384829883283 AA .
  | Original list of interatomic distances with          13 x         13 entries is created.
  | Net number of integration points:    69646
  | of which are non-zero points    :    59609
  Renormalizing the initial density to the exact electron count on the 3D integration grid.
  | Initial density: Formal number of electrons (from input files) :      48.0000000000
  | Integrated number of electrons on 3D grid     :      47.9999196319
  | Charge integration error                      :      -0.0000803681
  | Normalization factor for density and gradient :       1.0000016743
  Obtaining max. number of non-zero basis functions in each batch (get_n_compute_maxes).
  | Maximal number of non-zero basis functions:      119 in task     0
  Selecting the method for density update.
  Loop over occupied states selected for charge density update.
  Allocating        0.050 MB for KS_eigenvector
  Integrating Hamiltonian matrix: batch-based integration.
  Time summed over all CPUs for integration: real work        0.494 s, elapsed        0.494 s
  Integrating overlap matrix.
  Time summed over all CPUs for integration: real work        0.211 s, elapsed        0.211 s

  Updating Kohn-Sham eigenvalues and eigenvectors using ELSI and the ELPA eigensolver.
  Overlap matrix is nonsingular
  | Lowest eigenvalue of overlap  :  0.58E-02
  | Highest eigenvalue of overlap :  0.60E+01
  Finished singularity check of overlap matrix
  | Time :     0.002 s
  Finished Cholesky decomposition
  | Time :     0.000 s
  Finished transformation to standard eigenproblem
  | Time :     0.000 s
  Starting LAPACK eigensolver
  Finished solving standard eigenproblem
  | Time :     0.001 s
  Finished back-transformation of eigenvectors
  | Time :     0.000 s

  Obtaining occupation numbers and chemical potential using ELSI.
  | Chemical potential (Fermi level):    -8.96344374eV
  Writing Kohn-Sham eigenvalues.

  State    Occupation    Eigenvalue [Ha]    Eigenvalue [eV]
      1       2.00000         -19.007659         -517.22472
      2       2.00000         -18.978243         -516.42428
      3       2.00000         -14.245789         -387.64764
      4       2.00000         -10.166683         -276.64953
      5       2.00000         -10.141238         -275.95711
      6       2.00000         -10.131975         -275.70508
      7       2.00000          -1.187920          -32.32494
      8       2.00000          -1.093136          -29.74575
      9       2.00000          -0.991337          -26.97566
     10       2.00000          -0.861135          -23.43268
     11       2.00000          -0.761451          -20.72015
     12       2.00000          -0.678678          -18.46776
     13       2.00000          -0.619779          -16.86505
     14       2.00000          -0.604002          -16.43572
     15       2.00000          -0.583862          -15.88769
     16       2.00000          -0.579195          -15.76070
     17       2.00000          -0.541764          -14.74214
     18       2.00000          -0.534235          -14.53727
     19       2.00000          -0.512779          -13.95343
     20       2.00000          -0.501444          -13.64500
     21       2.00000          -0.480607          -13.07797
     22       2.00000          -0.429700          -11.69273
     23       2.00000          -0.405348          -11.03009
     24       2.00000          -0.385169          -10.48098
     25       0.00000          -0.150003           -4.08179
     26       0.00000          -0.058645           -1.59580
     27       0.00000          -0.027685           -0.75336
     28       0.00000          -0.020588           -0.56024
     29       0.00000           0.005217            0.14195
     30       0.00000           0.011013            0.29968
     31       0.00000           0.015579            0.42393
     32       0.00000           0.026839            0.73033
     33       0.00000           0.047915            1.30383
     34       0.00000           0.058191            1.58345
     35       0.00000           0.080064            2.17867
     36       0.00000           0.133179            3.62398
     37       0.00000           0.150841            4.10459
     38       0.00000           0.200644            5.45981
     39       0.00000           0.210105            5.71724
     40       0.00000           0.224247            6.10208
     41       0.00000           0.255318            6.94754
     42       0.00000           0.278229            7.57100
     43       0.00000           0.289520            7.87823
     44       0.00000           0.298013            8.10933
     45       0.00000           0.337517            9.18432
     46       0.00000           0.359722            9.78853
     47       0.00000           0.384324           10.45800
     48       0.00000           0.424310           11.54607
     49       0.00000           0.449874           12.24169
     50       0.00000           0.459053           12.49146
     51       0.00000           0.472741           12.86394
     52       0.00000           0.533155           14.50788
     53       0.00000           0.589202           16.03301

  Highest occupied state (VBM) at    -10.48097841 eV
  | Occupation number:      2.00000000

  Lowest unoccupied state (CBM) at    -4.08178892 eV
  | Occupation number:      0.00000000

  Overall HOMO-LUMO gap:      6.39918949 eV.
  Calculating total energy contributions from superposition of free atom densities.

  Total energy components:
  | Sum of eigenvalues            :        -188.84625875 Ha       -5138.76815813 eV
  | XC energy correction          :         -41.78514434 Ha       -1137.03162913 eV
  | XC potential correction       :          53.71498612 Ha        1461.65914066 eV
  | Free-atom electrostatic energy:        -146.85684872 Ha       -3996.17817699 eV
  | Hartree energy correction     :           0.00000000 Ha           0.00000000 eV
  | vdW energy correction         :           0.00000000 Ha           0.00000000 eV
  | Entropy correction            :           0.00000000 Ha           0.00000000 eV
  | ---------------------------
  | Total energy                  :        -323.77326569 Ha       -8810.31882359 eV
  | Total energy, T -> 0          :        -323.77326569 Ha       -8810.31882359 eV  <-- do not rely on this value for anything but (periodic) metals
  | Electronic free energy        :        -323.77326569 Ha       -8810.31882359 eV

  Derived energy quantities:
  | Kinetic energy                :         320.47679376 Ha        8720.61725821 eV
  | Electrostatic energy          :        -602.46491510 Ha      -16393.90445267 eV
  | Energy correction for multipole
  | error in Hartree potential    :           0.00000000 Ha           0.00000000 eV
  | Sum of eigenvalues per atom                           :        -395.28985832 eV
  | Total energy (T->0) per atom                          :        -677.71683258 eV  <-- do not rely on this value for anything but (periodic) metals
  | Electronic free energy per atom                       :        -677.71683258 eV
  Initialize hartree_potential_storage
  Max. number of atoms included in rho_multipole:           13

  End scf initialization - timings             :  max(cpu_time)    wall_clock(cpu1)
  | Time for scf. initialization               :        1.148 s           1.152 s
  | Boundary condition initialization          :        0.000 s           0.000 s
  | Integration                                :        0.705 s           0.706 s
  | Solution of K.-S. eqns.                    :        0.004 s           0.004 s
  | Grid partitioning                          :        0.111 s           0.111 s
  | Preloading free-atom quantities on grid    :        0.002 s           0.003 s
  | Free-atom superposition energy             :        0.085 s           0.088 s
  | Total energy evaluation                    :        0.000 s           0.000 s

  Partial memory accounting:
  | Current value for overall tracked memory usage on task 0  :           0.165 MB
  | Peak value for overall tracked memory usage on task 0     :           0.678 MB after allocating wave
  | Largest tracked array allocation on task 0 so far         :           0.132 MB  when allocating H_times_psi
  Note:  These values currently only include a subset of arrays which are explicitly tracked.
  The "true" memory usage will be greater.
------------------------------------------------------------

------------------------------------------------------------
          Begin self-consistency iteration #    1

  Date     :  20200805, Time     :  184640.014
------------------------------------------------------------
  Evaluating new KS density.
  Integration grid: deviation in total charge (<rho> - N_e) =   4.263256E-14
  Pulay mixing of updated and previous charge densities.

  Evaluating partitioned Hartree potential by multipole expansion.
  | Analytical far-field extrapolation by fixed multipoles:
  | Hartree multipole sum: apparent total charge =  -0.191434E-03
  Summing up the Hartree potential.
  Time summed over all CPUs for potential: real work        0.283 s, elapsed        0.283 s
  | RMS charge density error from multipole expansion :   0.586540E-02

  Integrating Hamiltonian matrix: batch-based integration.
  Time summed over all CPUs for integration: real work        0.500 s, elapsed        0.500 s

  Updating Kohn-Sham eigenvalues and eigenvectors using ELSI and the ELPA eigensolver.
  Finished Cholesky decomposition
  | Time :     0.000 s
  Finished transformation to standard eigenproblem
  | Time :     0.000 s
  Starting LAPACK eigensolver
  Finished solving standard eigenproblem
  | Time :     0.001 s
  Finished back-transformation of eigenvectors
  | Time :     0.000 s

  Obtaining occupation numbers and chemical potential using ELSI.
  | Chemical potential (Fermi level):    -7.76713083eV
  Writing Kohn-Sham eigenvalues.

  State    Occupation    Eigenvalue [Ha]    Eigenvalue [eV]
      1       2.00000         -18.905092         -514.43374
      2       2.00000         -18.838287         -512.61588
      3       2.00000         -14.094268         -383.52454
      4       2.00000         -10.114624         -275.23292
      5       2.00000         -10.061873         -273.79750
      6       2.00000         -10.029814         -272.92512
      7       2.00000          -1.138410          -30.97771
      8       2.00000          -1.030575          -28.04338
      9       2.00000          -0.920317          -25.04311
     10       2.00000          -0.793932          -21.60399
     11       2.00000          -0.710404          -19.33109
     12       2.00000          -0.631021          -17.17094
     13       2.00000          -0.559558          -15.22634
     14       2.00000          -0.541367          -14.73133
     15       2.00000          -0.528108          -14.37056
     16       2.00000          -0.516704          -14.06024
     17       2.00000          -0.489006          -13.30654
     18       2.00000          -0.473239          -12.87749
     19       2.00000          -0.444529          -12.09625
     20       2.00000          -0.442524          -12.04169
     21       2.00000          -0.425078          -11.56696
     22       2.00000          -0.368307          -10.02215
     23       2.00000          -0.333599           -9.07770
     24       2.00000          -0.312165           -8.49444
     25       0.00000          -0.112709           -3.06696
     26       0.00000          -0.031845           -0.86654
     27       0.00000          -0.001474           -0.04012
     28       0.00000           0.015887            0.43231
     29       0.00000           0.041005            1.11580
     30       0.00000           0.042452            1.15518
     31       0.00000           0.058684            1.59686
     32       0.00000           0.066299            1.80409
     33       0.00000           0.090119            2.45226
     34       0.00000           0.099041            2.69505
     35       0.00000           0.122271            3.32717
     36       0.00000           0.160283            4.36153
     37       0.00000           0.177732            4.83633
     38       0.00000           0.229942            6.25705
     39       0.00000           0.241026            6.55865
     40       0.00000           0.263197            7.16196
     41       0.00000           0.290702            7.91041
     42       0.00000           0.316118            8.60202
     43       0.00000           0.322247            8.76878
     44       0.00000           0.338899            9.22192
     45       0.00000           0.378864           10.30942
     46       0.00000           0.396665           10.79379
     47       0.00000           0.422470           11.49598
     48       0.00000           0.461585           12.56038
     49       0.00000           0.489119           13.30960
     50       0.00000           0.497209           13.52976
     51       0.00000           0.510382           13.88820
     52       0.00000           0.567883           15.45288
     53       0.00000           0.630284           17.15090

  Highest occupied state (VBM) at     -8.49444141 eV
  | Occupation number:      2.00000000

  Lowest unoccupied state (CBM) at    -3.06695640 eV
  | Occupation number:      0.00000000

  Overall HOMO-LUMO gap:      5.42748501 eV.

  Total energy components:
  | Sum of eigenvalues            :        -185.40560501 Ha       -5045.14320640 eV
  | XC energy correction          :         -42.11346217 Ha       -1145.96561183 eV
  | XC potential correction       :          54.14201170 Ha        1473.27909801 eV
  | Free-atom electrostatic energy:        -146.85684872 Ha       -3996.17817699 eV
  | Hartree energy correction     :          -3.35900800 Ha         -91.40325821 eV
  | vdW energy correction         :           0.00000000 Ha           0.00000000 eV
  | Entropy correction            :           0.00000000 Ha           0.00000000 eV
  | ---------------------------
  | Total energy                  :        -323.59291220 Ha       -8805.41115541 eV
  | Total energy, T -> 0          :        -323.59291220 Ha       -8805.41115541 eV  <-- do not rely on this value for anything but (periodic) metals
  | Electronic free energy        :        -323.59291220 Ha       -8805.41115541 eV

  Derived energy quantities:
  | Kinetic energy                :         322.26246412 Ha        8769.20782118 eV
  | Electrostatic energy          :        -603.74191415 Ha      -16428.65336476 eV
  | Energy correction for multipole
  | error in Hartree potential    :           0.01207906 Ha           0.32868789 eV
  | Sum of eigenvalues per atom                           :        -388.08793895 eV
  | Total energy (T->0) per atom                          :        -677.33931965 eV  <-- do not rely on this value for anything but (periodic) metals
  | Electronic free energy per atom                       :        -677.33931965 eV

  Self-consistency convergence accuracy:
  | Change of charge density      :  0.5812E+00
  | Change of sum of eigenvalues  :  0.9362E+02 eV
  | Change of total energy        :  0.4908E+01 eV

  End self-consistency iteration #     1       :  max(cpu_time)    wall_clock(cpu1)
  | Time for this iteration                    :        1.197 s           1.199 s
  | Charge density update                      :        0.397 s           0.397 s
  | Density mixing                             :        0.005 s           0.006 s
  | Hartree multipole update                   :        0.009 s           0.009 s
  | Hartree multipole summation                :        0.284 s           0.284 s
  | Integration                                :        0.499 s           0.500 s
  | Solution of K.-S. eqns.                    :        0.002 s           0.002 s
  | Total energy evaluation                    :        0.000 s           0.000 s

  Partial memory accounting:
  | Current value for overall tracked memory usage on task 0  :           0.165 MB
  | Peak value for overall tracked memory usage on task 0     :           0.695 MB after allocating gradient_basis_wave
  | Largest tracked array allocation on task 0 so far         :           0.397 MB  when allocating gradient_basis_wave
  Note:  These values currently only include a subset of arrays which are explicitly tracked.
  The "true" memory usage will be greater.
------------------------------------------------------------

------------------------------------------------------------
          Begin self-consistency iteration #    2

  Date     :  20200805, Time     :  184641.214
------------------------------------------------------------
  Evaluating new KS density.
  Integration grid: deviation in total charge (<rho> - N_e) =   2.131628E-14
  Pulay mixing of updated and previous charge densities.

  Evaluating partitioned Hartree potential by multipole expansion.
  | Analytical far-field extrapolation by fixed multipoles:
  | Hartree multipole sum: apparent total charge =  -0.334437E-03
  Summing up the Hartree potential.
  Time summed over all CPUs for potential: real work        0.283 s, elapsed        0.283 s
  | RMS charge density error from multipole expansion :   0.140338E-01

  Integrating Hamiltonian matrix: batch-based integration.
  Time summed over all CPUs for integration: real work        0.498 s, elapsed        0.498 s

  Updating Kohn-Sham eigenvalues and eigenvectors using ELSI and the ELPA eigensolver.
  Finished Cholesky decomposition
  | Time :     0.000 s
  Finished transformation to standard eigenproblem
  | Time :     0.000 s
  Starting LAPACK eigensolver
  Finished solving standard eigenproblem
  | Time :     0.002 s
  Finished back-transformation of eigenvectors
  | Time :     0.000 s

  Obtaining occupation numbers and chemical potential using ELSI.
  | Chemical potential (Fermi level):    -6.37852442eV
  Highest occupied state (VBM) at     -6.44919705 eV
  | Occupation number:      2.00000000

  Lowest unoccupied state (CBM) at    -1.78107613 eV
  | Occupation number:      0.00000000

  Overall HOMO-LUMO gap:      4.66812092 eV.

  Checking to see if s.c.f. parameters should be adjusted.

  Total energy components:
  | Sum of eigenvalues            :        -181.77870745 Ha       -4946.45030226 eV
  | XC energy correction          :         -42.47548086 Ha       -1155.81664157 eV
  | XC potential correction       :          54.61131722 Ha        1486.04955105 eV
  | Free-atom electrostatic energy:        -146.85684872 Ha       -3996.17817699 eV
  | Hartree energy correction     :          -7.01592619 Ha        -190.91306526 eV
  | vdW energy correction         :           0.00000000 Ha           0.00000000 eV
  | Entropy correction            :          -0.00000000 Ha          -0.00000000 eV
  | ---------------------------
  | Total energy                  :        -323.51564600 Ha       -8803.30863504 eV
  | Total energy, T -> 0          :        -323.51564600 Ha       -8803.30863504 eV  <-- do not rely on this value for anything but (periodic) metals
  | Electronic free energy        :        -323.51564600 Ha       -8803.30863504 eV

  Derived energy quantities:
  | Kinetic energy                :         323.58658933 Ha        8805.23910143 eV
  | Electrostatic energy          :        -604.62675447 Ha      -16452.73109490 eV
  | Energy correction for multipole
  | error in Hartree potential    :           0.02695282 Ha           0.73342363 eV
  | Sum of eigenvalues per atom                           :        -380.49617710 eV
  | Total energy (T->0) per atom                          :        -677.17758731 eV  <-- do not rely on this value for anything but (periodic) metals
  | Electronic free energy per atom                       :        -677.17758731 eV

  Self-consistency convergence accuracy:
  | Change of charge density      :  0.3625E+00
  | Change of sum of eigenvalues  :  0.9869E+02 eV
  | Change of total energy        :  0.2103E+01 eV

  End self-consistency iteration #     2       :  max(cpu_time)    wall_clock(cpu1)
  | Time for this iteration                    :        1.186 s           1.188 s
  | Charge density update                      :        0.386 s           0.387 s
  | Density mixing                             :        0.007 s           0.007 s
  | Hartree multipole update                   :        0.009 s           0.009 s
  | Hartree multipole summation                :        0.284 s           0.284 s
  | Integration                                :        0.498 s           0.498 s
  | Solution of K.-S. eqns.                    :        0.002 s           0.003 s
  | Total energy evaluation                    :        0.000 s           0.000 s

  Partial memory accounting:
  | Current value for overall tracked memory usage on task 0  :           0.166 MB
  | Peak value for overall tracked memory usage on task 0     :           0.695 MB after allocating gradient_basis_wave
  | Largest tracked array allocation on task 0 so far         :           0.397 MB  when allocating gradient_basis_wave
  Note:  These values currently only include a subset of arrays which are explicitly tracked.
  The "true" memory usage will be greater.
------------------------------------------------------------

------------------------------------------------------------
          Begin self-consistency iteration #    3

  Date     :  20200805, Time     :  184642.403
------------------------------------------------------------
  Evaluating new KS density.
  Integration grid: deviation in total charge (<rho> - N_e) =   2.842171E-14
  Pulay mixing of updated and previous charge densities.

  Evaluating partitioned Hartree potential by multipole expansion.
  | Analytical far-field extrapolation by fixed multipoles:
  | Hartree multipole sum: apparent total charge =  -0.437546E-03
  Summing up the Hartree potential.
  Time summed over all CPUs for potential: real work        0.284 s, elapsed        0.284 s
  | RMS charge density error from multipole expansion :   0.224730E-01

  Integrating Hamiltonian matrix: batch-based integration.
  Time summed over all CPUs for integration: real work        0.496 s, elapsed        0.496 s

  Updating Kohn-Sham eigenvalues and eigenvectors using ELSI and the ELPA eigensolver.
  Finished Cholesky decomposition
  | Time :     0.000 s
  Finished transformation to standard eigenproblem
  | Time :     0.000 s
  Starting LAPACK eigensolver
  Finished solving standard eigenproblem
  | Time :     0.002 s
  Finished back-transformation of eigenvectors
  | Time :     0.000 s

  Obtaining occupation numbers and chemical potential using ELSI.
  | Chemical potential (Fermi level):    -5.69476434eV
  Highest occupied state (VBM) at     -5.78824398 eV
  | Occupation number:      2.00000000

  Lowest unoccupied state (CBM) at    -1.07551897 eV
  | Occupation number:      0.00000000

  Overall HOMO-LUMO gap:      4.71272500 eV.

  Total energy components:
  | Sum of eigenvalues            :        -180.50992379 Ha       -4911.92494238 eV
  | XC energy correction          :         -42.62482202 Ha       -1159.88042121 eV
  | XC potential correction       :          54.80149957 Ha        1491.22467596 eV
  | Free-atom electrostatic energy:        -146.85684872 Ha       -3996.17817699 eV
  | Hartree energy correction     :          -8.31324775 Ha        -226.21498095 eV
  | vdW energy correction         :           0.00000000 Ha           0.00000000 eV
  | Entropy correction            :          -0.00000000 Ha          -0.00000000 eV
  | ---------------------------
  | Total energy                  :        -323.50334271 Ha       -8802.97384557 eV
  | Total energy, T -> 0          :        -323.50334271 Ha       -8802.97384557 eV  <-- do not rely on this value for anything but (periodic) metals
  | Electronic free energy        :        -323.50334271 Ha       -8802.97384557 eV

  Derived energy quantities:
  | Kinetic energy                :         323.10730961 Ha        8792.19723662 eV
  | Electrostatic energy          :        -603.98583030 Ha      -16435.29066098 eV
  | Energy correction for multipole
  | error in Hartree potential    :           0.03891332 Ha           1.05888522 eV
  | Sum of eigenvalues per atom                           :        -377.84038018 eV
  | Total energy (T->0) per atom                          :        -677.15183427 eV  <-- do not rely on this value for anything but (periodic) metals
  | Electronic free energy per atom                       :        -677.15183427 eV

  Self-consistency convergence accuracy:
  | Change of charge density      :  0.2015E+00
  | Change of sum of eigenvalues  :  0.3453E+02 eV
  | Change of total energy        :  0.3348E+00 eV

  End self-consistency iteration #     3       :  max(cpu_time)    wall_clock(cpu1)
  | Time for this iteration                    :        1.185 s           1.187 s
  | Charge density update                      :        0.386 s           0.387 s
  | Density mixing                             :        0.009 s           0.008 s
  | Hartree multipole update                   :        0.009 s           0.009 s
  | Hartree multipole summation                :        0.284 s           0.284 s
  | Integration                                :        0.496 s           0.497 s
  | Solution of K.-S. eqns.                    :        0.002 s           0.002 s
  | Total energy evaluation                    :        0.000 s           0.000 s

  Partial memory accounting:
  | Current value for overall tracked memory usage on task 0  :           0.166 MB
  | Peak value for overall tracked memory usage on task 0     :           0.695 MB after allocating gradient_basis_wave
  | Largest tracked array allocation on task 0 so far         :           0.397 MB  when allocating gradient_basis_wave
  Note:  These values currently only include a subset of arrays which are explicitly tracked.
  The "true" memory usage will be greater.
------------------------------------------------------------

------------------------------------------------------------
          Begin self-consistency iteration #    4

  Date     :  20200805, Time     :  184643.591
------------------------------------------------------------
  Evaluating new KS density.
  Integration grid: deviation in total charge (<rho> - N_e) =   4.263256E-14
  Pulay mixing of updated and previous charge densities.

  Evaluating partitioned Hartree potential by multipole expansion.
  | Analytical far-field extrapolation by fixed multipoles:
  | Hartree multipole sum: apparent total charge =  -0.468751E-03
  Summing up the Hartree potential.
  Time summed over all CPUs for potential: real work        0.286 s, elapsed        0.286 s
  | RMS charge density error from multipole expansion :   0.256203E-01

  Integrating Hamiltonian matrix: batch-based integration.
  Time summed over all CPUs for integration: real work        0.505 s, elapsed        0.505 s

  Updating Kohn-Sham eigenvalues and eigenvectors using ELSI and the ELPA eigensolver.
  Finished Cholesky decomposition
  | Time :     0.000 s
  Finished transformation to standard eigenproblem
  | Time :     0.000 s
  Starting LAPACK eigensolver
  Finished solving standard eigenproblem
  | Time :     0.002 s
  Finished back-transformation of eigenvectors
  | Time :     0.000 s

  Obtaining occupation numbers and chemical potential using ELSI.
  | Chemical potential (Fermi level):    -1.45015201eV
  Highest occupied state (VBM) at     -5.60919389 eV
  | Occupation number:      2.00000000

  Lowest unoccupied state (CBM) at    -1.00236274 eV
  | Occupation number:      0.00000000

  Overall HOMO-LUMO gap:      4.60683115 eV.

  Total energy components:
  | Sum of eigenvalues            :        -180.35264255 Ha       -4907.64510208 eV
  | XC energy correction          :         -42.66144534 Ha       -1160.87699238 eV
  | XC potential correction       :          54.84774818 Ha        1492.48316470 eV
  | Free-atom electrostatic energy:        -146.85684872 Ha       -3996.17817699 eV
  | Hartree energy correction     :          -8.47943733 Ha        -230.73722949 eV
  | vdW energy correction         :           0.00000000 Ha           0.00000000 eV
  | Entropy correction            :           0.00000000 Ha           0.00000000 eV
  | ---------------------------
  | Total energy                  :        -323.50262576 Ha       -8802.95433625 eV
  | Total energy, T -> 0          :        -323.50262576 Ha       -8802.95433625 eV  <-- do not rely on this value for anything but (periodic) metals
  | Electronic free energy        :        -323.50262576 Ha       -8802.95433625 eV

  Derived energy quantities:
  | Kinetic energy                :         322.77837411 Ha        8783.24644629 eV
  | Electrostatic energy          :        -603.61955453 Ha      -16425.32379016 eV
  | Energy correction for multipole
  | error in Hartree potential    :           0.04300499 Ha           1.17022545 eV
  | Sum of eigenvalues per atom                           :        -377.51116170 eV
  | Total energy (T->0) per atom                          :        -677.15033356 eV  <-- do not rely on this value for anything but (periodic) metals
  | Electronic free energy per atom                       :        -677.15033356 eV

  Self-consistency convergence accuracy:
  | Change of charge density      :  0.5798E-01
  | Change of sum of eigenvalues  :  0.4280E+01 eV
  | Change of total energy        :  0.1951E-01 eV

  End self-consistency iteration #     4       :  max(cpu_time)    wall_clock(cpu1)
  | Time for this iteration                    :        1.200 s           1.201 s
  | Charge density update                      :        0.387 s           0.387 s
  | Density mixing                             :        0.010 s           0.010 s
  | Hartree multipole update                   :        0.009 s           0.008 s
  | Hartree multipole summation                :        0.287 s           0.287 s
  | Integration                                :        0.505 s           0.506 s
  | Solution of K.-S. eqns.                    :        0.002 s           0.002 s
  | Total energy evaluation                    :        0.000 s           0.000 s

  Partial memory accounting:
  | Current value for overall tracked memory usage on task 0  :           0.166 MB
  | Peak value for overall tracked memory usage on task 0     :           0.696 MB after allocating gradient_basis_wave
  | Largest tracked array allocation on task 0 so far         :           0.397 MB  when allocating gradient_basis_wave
  Note:  These values currently only include a subset of arrays which are explicitly tracked.
  The "true" memory usage will be greater.
------------------------------------------------------------

------------------------------------------------------------
          Begin self-consistency iteration #    5

  Date     :  20200805, Time     :  184644.793
------------------------------------------------------------
  Evaluating new KS density.
  Integration grid: deviation in total charge (<rho> - N_e) =   2.131628E-14
  Pulay mixing of updated and previous charge densities.

  Evaluating partitioned Hartree potential by multipole expansion.
  | Analytical far-field extrapolation by fixed multipoles:
  | Hartree multipole sum: apparent total charge =  -0.462705E-03
  Summing up the Hartree potential.
  Time summed over all CPUs for potential: real work        0.284 s, elapsed        0.284 s
  | RMS charge density error from multipole expansion :   0.253774E-01

  Integrating Hamiltonian matrix: batch-based integration.
  Time summed over all CPUs for integration: real work        0.494 s, elapsed        0.494 s

  Updating Kohn-Sham eigenvalues and eigenvectors using ELSI and the ELPA eigensolver.
  Finished Cholesky decomposition
  | Time :     0.000 s
  Finished transformation to standard eigenproblem
  | Time :     0.000 s
  Starting LAPACK eigensolver
  Finished solving standard eigenproblem
  | Time :     0.002 s
  Finished back-transformation of eigenvectors
  | Time :     0.000 s

  Obtaining occupation numbers and chemical potential using ELSI.
  | Chemical potential (Fermi level):    -1.51392825eV
  Highest occupied state (VBM) at     -5.68329428 eV
  | Occupation number:      2.00000000

  Lowest unoccupied state (CBM) at    -1.08079464 eV
  | Occupation number:      0.00000000

  Overall HOMO-LUMO gap:      4.60249964 eV.

  Total energy components:
  | Sum of eigenvalues            :        -180.53466620 Ha       -4912.59821767 eV
  | XC energy correction          :         -42.63923844 Ha       -1160.27271210 eV
  | XC potential correction       :          54.81894317 Ha        1491.69934050 eV
  | Free-atom electrostatic energy:        -146.85684872 Ha       -3996.17817699 eV
  | Hartree energy correction     :          -8.29051551 Ha        -225.59640517 eV
  | vdW energy correction         :           0.00000000 Ha           0.00000000 eV
  | Entropy correction            :           0.00000000 Ha           0.00000000 eV
  | ---------------------------
  | Total energy                  :        -323.50232571 Ha       -8802.94617144 eV
  | Total energy, T -> 0          :        -323.50232571 Ha       -8802.94617144 eV  <-- do not rely on this value for anything but (periodic) metals
  | Electronic free energy        :        -323.50232571 Ha       -8802.94617144 eV

  Derived energy quantities:
  | Kinetic energy                :         322.67917093 Ha        8780.54699040 eV
  | Electrostatic energy          :        -603.54225819 Ha      -16423.22044973 eV
  | Energy correction for multipole
  | error in Hartree potential    :           0.04241750 Ha           1.15423903 eV
  | Sum of eigenvalues per atom                           :        -377.89217059 eV
  | Total energy (T->0) per atom                          :        -677.14970550 eV  <-- do not rely on this value for anything but (periodic) metals
  | Electronic free energy per atom                       :        -677.14970550 eV

  Self-consistency convergence accuracy:
  | Change of charge density      :  0.2074E-01
  | Change of sum of eigenvalues  : -0.4953E+01 eV
  | Change of total energy        :  0.8165E-02 eV

  End self-consistency iteration #     5       :  max(cpu_time)    wall_clock(cpu1)
  | Time for this iteration                    :        1.187 s           1.188 s
  | Charge density update                      :        0.386 s           0.387 s
  | Density mixing                             :        0.011 s           0.011 s
  | Hartree multipole update                   :        0.009 s           0.009 s
  | Hartree multipole summation                :        0.284 s           0.284 s
  | Integration                                :        0.494 s           0.495 s
  | Solution of K.-S. eqns.                    :        0.002 s           0.002 s
  | Total energy evaluation                    :        0.000 s           0.000 s

  Partial memory accounting:
  | Current value for overall tracked memory usage on task 0  :           0.166 MB
  | Peak value for overall tracked memory usage on task 0     :           0.696 MB after allocating gradient_basis_wave
  | Largest tracked array allocation on task 0 so far         :           0.397 MB  when allocating gradient_basis_wave
  Note:  These values currently only include a subset of arrays which are explicitly tracked.
  The "true" memory usage will be greater.
------------------------------------------------------------

------------------------------------------------------------
          Begin self-consistency iteration #    6

  Date     :  20200805, Time     :  184645.984
------------------------------------------------------------
  Evaluating new KS density.
  Integration grid: deviation in total charge (<rho> - N_e) =   2.131628E-14
  Pulay mixing of updated and previous charge densities.

  Evaluating partitioned Hartree potential by multipole expansion.
  | Analytical far-field extrapolation by fixed multipoles:
  | Hartree multipole sum: apparent total charge =  -0.464929E-03
  Summing up the Hartree potential.
  Time summed over all CPUs for potential: real work        0.284 s, elapsed        0.284 s
  | RMS charge density error from multipole expansion :   0.257335E-01

  Integrating Hamiltonian matrix: batch-based integration.
  Time summed over all CPUs for integration: real work        0.495 s, elapsed        0.495 s

  Updating Kohn-Sham eigenvalues and eigenvectors using ELSI and the ELPA eigensolver.
  Finished Cholesky decomposition
  | Time :     0.000 s
  Finished transformation to standard eigenproblem
  | Time :     0.000 s
  Starting LAPACK eigensolver
  Finished solving standard eigenproblem
  | Time :     0.002 s
  Finished back-transformation of eigenvectors
  | Time :     0.000 s

  Obtaining occupation numbers and chemical potential using ELSI.
  | Chemical potential (Fermi level):    -1.52234957eV
  Highest occupied state (VBM) at     -5.66339120 eV
  | Occupation number:      2.00000000

  Lowest unoccupied state (CBM) at    -1.10500607 eV
  | Occupation number:      0.00000000

  Overall HOMO-LUMO gap:      4.55838513 eV.

  Total energy components:
  | Sum of eigenvalues            :        -180.56594866 Ha       -4913.44945655 eV
  | XC energy correction          :         -42.63411519 Ha       -1160.13330113 eV
  | XC potential correction       :          54.81228315 Ha        1491.51811221 eV
  | Free-atom electrostatic energy:        -146.85684872 Ha       -3996.17817699 eV
  | Hartree energy correction     :          -8.25763533 Ha        -224.70168990 eV
  | vdW energy correction         :           0.00000000 Ha           0.00000000 eV
  | Entropy correction            :           0.00000000 Ha           0.00000000 eV
  | ---------------------------
  | Total energy                  :        -323.50226474 Ha       -8802.94451237 eV
  | Total energy, T -> 0          :        -323.50226474 Ha       -8802.94451237 eV  <-- do not rely on this value for anything but (periodic) metals
  | Electronic free energy        :        -323.50226474 Ha       -8802.94451237 eV

  Derived energy quantities:
  | Kinetic energy                :         322.58836131 Ha        8778.07593484 eV
  | Electrostatic energy          :        -603.45651086 Ha      -16420.88714608 eV
  | Energy correction for multipole
  | error in Hartree potential    :           0.04269123 Ha           1.16168741 eV
  | Sum of eigenvalues per atom                           :        -377.95765050 eV
  | Total energy (T->0) per atom                          :        -677.14957787 eV  <-- do not rely on this value for anything but (periodic) metals
  | Electronic free energy per atom                       :        -677.14957787 eV

  Self-consistency convergence accuracy:
  | Change of charge density      :  0.1043E-01
  | Change of sum of eigenvalues  : -0.8512E+00 eV
  | Change of total energy        :  0.1659E-02 eV

  End self-consistency iteration #     6       :  max(cpu_time)    wall_clock(cpu1)
  | Time for this iteration                    :        1.188 s           1.192 s
  | Charge density update                      :        0.386 s           0.388 s
  | Density mixing                             :        0.012 s           0.012 s
  | Hartree multipole update                   :        0.009 s           0.009 s
  | Hartree multipole summation                :        0.284 s           0.285 s
  | Integration                                :        0.494 s           0.495 s
  | Solution of K.-S. eqns.                    :        0.002 s           0.002 s
  | Total energy evaluation                    :        0.000 s           0.000 s

  Partial memory accounting:
  | Current value for overall tracked memory usage on task 0  :           0.166 MB
  | Peak value for overall tracked memory usage on task 0     :           0.696 MB after allocating gradient_basis_wave
  | Largest tracked array allocation on task 0 so far         :           0.397 MB  when allocating gradient_basis_wave
  Note:  These values currently only include a subset of arrays which are explicitly tracked.
  The "true" memory usage will be greater.
------------------------------------------------------------

------------------------------------------------------------
          Begin self-consistency iteration #    7

  Date     :  20200805, Time     :  184647.179
------------------------------------------------------------
  Evaluating new KS density.
  Integration grid: deviation in total charge (<rho> - N_e) =   7.105427E-15
  Pulay mixing of updated and previous charge densities.

  Evaluating partitioned Hartree potential by multipole expansion.
  | Analytical far-field extrapolation by fixed multipoles:
  | Hartree multipole sum: apparent total charge =  -0.466353E-03
  Summing up the Hartree potential.
  Time summed over all CPUs for potential: real work        0.285 s, elapsed        0.285 s
  | RMS charge density error from multipole expansion :   0.258971E-01

  Integrating Hamiltonian matrix: batch-based integration.
  Time summed over all CPUs for integration: real work        0.504 s, elapsed        0.504 s

  Updating Kohn-Sham eigenvalues and eigenvectors using ELSI and the ELPA eigensolver.
  Finished Cholesky decomposition
  | Time :     0.000 s
  Finished transformation to standard eigenproblem
  | Time :     0.000 s
  Starting LAPACK eigensolver
  Finished solving standard eigenproblem
  | Time :     0.001 s
  Finished back-transformation of eigenvectors
  | Time :     0.000 s

[...]
  |   Hirshfeld dipole moment :      0.06504835
  |   Hirshfeld second moments:      0.00244253      -0.01854258      -0.01610568
  |                                 -0.01854258      -0.00671224       0.00961229
  |                                 -0.01610568       0.00961229      -0.01976044
  ----------------------------------------------------------------------
  | Atom    12: O
  |   Hirshfeld charge        :     -0.13779902
  |   Free atom volume        :     23.61338643
  |   Hirshfeld volume        :     20.74868069
  |   Hirshfeld dipole vector :      0.02187817      -0.00047859       0.03435013
  |   Hirshfeld dipole moment :      0.04072855
  |   Hirshfeld second moments:      0.05261514       0.00397177      -0.01826671
  |                                  0.00397177       0.10097488      -0.00740064
  |                                 -0.01826671      -0.00740064       0.03618970
  ----------------------------------------------------------------------
  | Atom    13: H
  |   Hirshfeld charge        :      0.17164114
  |   Free atom volume        :      9.95071624
  |   Hirshfeld volume        :      6.34522822
  |   Hirshfeld dipole vector :      0.00866556      -0.10876956       0.03475974
  |   Hirshfeld dipole moment :      0.11451702
  |   Hirshfeld second moments:      0.11591948       0.00147750      -0.01479309
  |                                  0.00147750       0.12310580       0.00011000
  |                                 -0.01479309       0.00011000       0.08565869
  ----------------------------------------------------------------------


  Total energy components:
  | Sum of eigenvalues            :        -180.55530591 Ha       -4913.15985259 eV
  | XC energy correction          :         -42.63201107 Ha       -1160.07604515 eV
  | XC potential correction       :          54.80963447 Ha        1491.44603783 eV
  | Free-atom electrostatic energy:        -146.85684872 Ha       -3996.17817699 eV
  | Hartree energy correction     :          -8.26771501 Ha        -224.97597217 eV
  | vdW energy correction         :          -0.00307245 Ha          -0.08360562 eV
  | Entropy correction            :           0.00000000 Ha           0.00000000 eV
  | ---------------------------
  | Total energy                  :        -323.50531869 Ha       -8803.02761469 eV
  | Total energy, T -> 0          :        -323.50531869 Ha       -8803.02761469 eV  <-- do not rely on this value for anything but (periodic) metals
  | Electronic free energy        :        -323.50531869 Ha       -8803.02761469 eV

  Derived energy quantities:
  | Kinetic energy                :         322.54966627 Ha        8777.02298929 eV
  | Electrostatic energy          :        -603.41990145 Ha      -16419.89095321 eV
  | Energy correction for multipole
  | error in Hartree potential    :           0.04282972 Ha           1.16545607 eV
  | Sum of eigenvalues per atom                           :        -377.93537328 eV
  | Total energy (T->0) per atom                          :        -677.15597036 eV  <-- do not rely on this value for anything but (periodic) metals
  | Electronic free energy per atom                       :        -677.15597036 eV

  atomic forces [eV/Ang]:
  -----------------------
  atom #    1
   Hellmann-Feynman              :  0.738829E+00  0.299200E+00  0.643268E+00
   Ionic forces                  :  0.000000E+00  0.000000E+00  0.000000E+00
   Multipole                     :  0.228274E+00  0.352585E+00 -0.334530E+00
   Pulay + GGA                   : -0.141784E+01 -0.455197E+00 -0.944018E+00
   Van der Waals                 :  0.170381E-02  0.115927E-02 -0.144700E-02
   ----------------------------------------------------------------
   Total forces(   1)            : -0.449031E+00  0.197747E+00 -0.636728E+00
  atom #    2
   Hellmann-Feynman              :  0.461321E+00 -0.852301E-01  0.460950E+00
   Ionic forces                  :  0.000000E+00  0.000000E+00  0.000000E+00
   Multipole                     :  0.145312E+00  0.323064E-01 -0.499007E-01
   Pulay + GGA                   : -0.115433E+00  0.167108E-01  0.419422E-02
   Van der Waals                 :  0.866460E-02 -0.483965E-02 -0.104120E-02
   ----------------------------------------------------------------
   Total forces(   2)            :  0.499865E+00 -0.410526E-01  0.414203E+00
  atom #    3
   Hellmann-Feynman              : -0.125275E+02 -0.410453E+00  0.973481E+00
   Ionic forces                  :  0.000000E+00  0.000000E+00  0.000000E+00
   Multipole                     : -0.892696E-01  0.118030E+00 -0.868892E+00
   Pulay + GGA                   :  0.122565E+02  0.260990E+00  0.783020E+00
   Van der Waals                 :  0.309109E-02 -0.794395E-02 -0.638498E-02
   ----------------------------------------------------------------
   Total forces(   3)            : -0.357194E+00 -0.393768E-01  0.881224E+00
  atom #    4
   Hellmann-Feynman              :  0.228518E+00 -0.614108E-02 -0.798233E-01
   Ionic forces                  :  0.000000E+00  0.000000E+00  0.000000E+00
   Multipole                     :  0.356702E-01  0.289697E-01 -0.993607E-01
   Pulay + GGA                   : -0.144174E+00 -0.145397E+00  0.788716E-01
   Van der Waals                 : -0.376663E-02 -0.612365E-02 -0.531267E-02
   ----------------------------------------------------------------
   Total forces(   4)            :  0.116248E+00 -0.128692E+00 -0.105625E+00
  atom #    5
   Hellmann-Feynman              :  0.201347E+00 -0.504824E-01 -0.270990E+00
   Ionic forces                  :  0.000000E+00  0.000000E+00  0.000000E+00
   Multipole                     :  0.435531E-01 -0.391762E-01 -0.108555E+00
   Pulay + GGA                   : -0.175895E+00  0.130748E+00  0.977280E-01
   Van der Waals                 : -0.862769E-03  0.465558E-02 -0.415527E-02
   ----------------------------------------------------------------
   Total forces(   5)            :  0.681422E-01  0.457453E-01 -0.285973E+00
  atom #    6
   Hellmann-Feynman              : -0.311056E+00 -0.700232E+00  0.387944E+00
   Ionic forces                  :  0.000000E+00  0.000000E+00  0.000000E+00
   Multipole                     : -0.100763E+00  0.702074E+00  0.245049E+00
   Pulay + GGA                   :  0.485355E+00 -0.459729E+00 -0.608969E+00
   Van der Waals                 : -0.335225E-02  0.446211E-02 -0.376139E-03
   ----------------------------------------------------------------
   Total forces(   6)            :  0.701830E-01 -0.453425E+00  0.236479E-01
  atom #    7
   Hellmann-Feynman              : -0.195354E+00 -0.348350E-01 -0.602566E-01
   Ionic forces                  :  0.000000E+00  0.000000E+00  0.000000E+00
   Multipole                     : -0.123289E+00  0.473929E-01  0.323226E-01
   Pulay + GGA                   :  0.117509E+00 -0.172338E-01 -0.303502E-01
   Van der Waals                 : -0.526870E-03  0.204081E-02  0.215311E-02
   ----------------------------------------------------------------
   Total forces(   7)            : -0.201660E+00 -0.263502E-02 -0.561310E-01
  atom #    8
   Hellmann-Feynman              :  0.112653E+00 -0.440547E-01  0.110575E+00
   Ionic forces                  :  0.000000E+00  0.000000E+00  0.000000E+00
   Multipole                     :  0.131395E-01  0.656476E-01  0.127054E+00
   Pulay + GGA                   : -0.447365E-01 -0.385312E-01 -0.970490E-01
   Van der Waals                 : -0.249029E-02  0.115249E-01  0.120936E-02
   ----------------------------------------------------------------
   Total forces(   8)            :  0.785658E-01 -0.541343E-02  0.141790E+00
  atom #    9
   Hellmann-Feynman              :  0.123856E+00  0.687578E-01 -0.192956E+00
   Ionic forces                  :  0.000000E+00  0.000000E+00  0.000000E+00
   Multipole                     :  0.196509E-01  0.129572E+00 -0.262396E-02
   Pulay + GGA                   : -0.476938E-01 -0.678584E-01  0.740757E-01
   Van der Waals                 : -0.188562E-02  0.714994E-02  0.922610E-02
   ----------------------------------------------------------------
   Total forces(   9)            :  0.939280E-01  0.137621E+00 -0.112278E+00
  atom #   10
   Hellmann-Feynman              :  0.225630E+01  0.539321E+01  0.289155E+00
   Ionic forces                  :  0.000000E+00  0.000000E+00  0.000000E+00
   Multipole                     : -0.163807E-01 -0.264312E+00  0.304799E+00
   Pulay + GGA                   : -0.160277E+01 -0.279126E+01 -0.119864E+00
   Van der Waals                 :  0.236048E-02 -0.105498E-01  0.770286E-03
   ----------------------------------------------------------------
   Total forces(  10)            :  0.639511E+00  0.232709E+01  0.474860E+00
  atom #   11
   Hellmann-Feynman              :  0.418431E+01 -0.245026E+01  0.142503E+02
   Ionic forces                  :  0.000000E+00  0.000000E+00  0.000000E+00
   Multipole                     :  0.141624E+00 -0.555814E+00  0.805829E+00
   Pulay + GGA                   : -0.318670E+01  0.339513E+01 -0.135464E+02
   Van der Waals                 : -0.303180E-02 -0.119394E-01  0.173608E-02
   ----------------------------------------------------------------
   Total forces(  11)            :  0.113620E+01  0.377123E+00  0.151154E+01
  atom #   12
   Hellmann-Feynman              : -0.741448E+01  0.111657E+01 -0.143836E+02
   Ionic forces                  :  0.000000E+00  0.000000E+00  0.000000E+00
   Multipole                     : -0.961986E+00 -0.933349E+00 -0.736496E+00
   Pulay + GGA                   :  0.740808E+01 -0.181327E+01  0.126878E+02
   Van der Waals                 : -0.118173E-02  0.451828E-02  0.724089E-02
   ----------------------------------------------------------------
   Total forces(  12)            : -0.969564E+00 -0.162553E+01 -0.242498E+01
  atom #   13
   Hellmann-Feynman              : -0.704341E+00 -0.103433E+01  0.274351E+00
   Ionic forces                  :  0.000000E+00  0.000000E+00  0.000000E+00
   Multipole                     :  0.264766E-01 -0.744826E-01  0.681279E-01
   Pulay + GGA                   : -0.482929E-01  0.308339E+00 -0.164875E+00
   Van der Waals                 :  0.127798E-02  0.588551E-02 -0.361856E-02
   ----------------------------------------------------------------
   Total forces(  13)            : -0.724880E+00 -0.794587E+00  0.173986E+00

  Timings for VdW correction (Tkatchenko-Scheffler 2009 or later):
  | CPU time:        0.089 s, Wall clock time:        0.090 s.
  Removing unitary transformations (pure translations, rotations) from forces on atoms.
  Atomic forces before filtering:
  | Net force on center of mass :   0.314225E-03 -0.538682E-02 -0.463490E-03 eV/A
  | Net torque on center of mass:  -0.931753E-02  0.653422E-02  0.243427E-02 eV
  Atomic forces after filtering:
  | Net force on center of mass :   0.892031E-16 -0.356812E-15  0.111504E-15 eV/A
  | Net torque on center of mass:  -0.141613E-15 -0.354032E-16 -0.377634E-15 eV

  Energy and forces in a compact form:
  | Total energy uncorrected      :         -0.880302761469130E+04 eV
  | Total energy corrected        :         -0.880302761469130E+04 eV  <-- do not rely on this value for anything but (periodic) metals
  | Electronic free energy        :         -0.880302761469130E+04 eV
  Total atomic forces (unitary forces cleaned) [eV/Ang]:
  |   1         -0.449011383179623E+00          0.198159795600947E+00         -0.636569129036152E+00
  |   2          0.499884495840347E+00         -0.407193713542660E-01          0.414657293840696E+00
  |   3         -0.356791832441326E+00         -0.386527334911694E-01          0.881252319144905E+00
  |   4          0.116836353149735E+00         -0.127902109896092E+00         -0.105339682633652E+00
  |   5          0.686112733324868E-01          0.465344936050559E-01         -0.286006186212107E+00
  |   6          0.700974753106028E-01         -0.453118458011293E+00          0.239189555061382E-01
  |   7         -0.201747842893989E+00         -0.225172804669625E-02         -0.561503517173934E-01
  |   8          0.782020522996592E-01         -0.533472275256225E-02          0.142161349383672E+00
  |   9          0.940447610935012E-01          0.138000325265292E+00         -0.111733231412780E+00
  |  10          0.639235289155860E+00          0.232738425638886E+01          0.474659825251179E+00
  |  11          0.113559568675112E+01          0.377174878305535E+00          0.151136559488924E+01
  |  12         -0.969718598033810E+00         -0.162504983140669E+01         -0.242553794301395E+01
  |  13         -0.725237730384562E+00         -0.794224794206929E+00          0.173321186010211E+00

  ------------------------------------ 
  Start decomposition of the XC Energy 
  ------------------------------------ 
  X and C from original XC functional choice 
  Hartree-Fock Energy :          0.000000000 Ha              0.000000000 eV
  X Energy            :        -41.032705940 Ha          -1116.556738414 eV
  C Energy            :         -1.599305127 Ha            -43.519306735 eV
  Total XC Energy     :        -42.632011067 Ha          -1160.076045149 eV
  ------------------------------------ 
  LDA X and C from self-consistent density 
  X Energy LDA        :        -37.250211639 Ha          -1013.629831623 eV
  C Energy LDA        :         -3.138083776 Ha            -85.391604229 eV
  ------------------------------------ 
  End decomposition of the XC Energy 
  ------------------------------------ 

------------------------------------------------------------

------------------------------------------------------------------------------
  Final output of selected total energy values:

  The following output summarizes some interesting total energy values
  at the end of a run (AFTER all relaxation, molecular dynamics, etc.).

  | Total energy of the DFT / Hartree-Fock s.c.f. calculation      :          -8803.027614691 eV
  | Final zero-broadening corrected energy (caution - metals only) :          -8803.027614691 eV
  | For reference only, the value of 1 Hartree used in FHI-aims is :             27.211384500 eV

  Before relying on these values, please be sure to understand exactly which
  total energy value is referred to by a given number. Different objects may
  all carry the same name 'total energy'. Definitions:

  Total energy of the DFT / Hartree-Fock s.c.f. calculation:
  | Note that this energy does not include ANY quantities calculated after the
  | s.c.f. cycle, in particular not ANY RPA, MP2, etc. many-body perturbation terms.

  Final zero-broadening corrected energy:
  | For metallic systems only, a broadening of the occupation numbers at the Fermi
  | level can be extrapolated back to zero broadening by an electron-gas inspired
  | formula. For all systems that are not real metals, this value can be
  | meaningless and should be avoided.

------------------------------------------------------------------------------
  Methods described in the following list of references were used in this FHI-aims run.
  If you publish the results, please make sure to cite these reference if they apply.
  FHI-aims is an academic code, and for our developers (often, Ph.D. students
  and postdocs), scientific credit in the community is essential.
  Thank you for helping us!

  For any use of FHI-aims, please cite:

    Volker Blum, Ralf Gehrke, Felix Hanke, Paula Havu, Ville Havu,
    Xinguo Ren, Karsten Reuter, and Matthias Scheffler
    'Ab initio molecular simulations with numeric atom-centered orbitals'
    Computer Physics Communications 180, 2175-2196 (2009)
    http://dx.doi.org/10.1016/j.cpc.2009.06.022


  The scalable eigensolver library ELPA was used in your run.
  ELPA is essential especially for large systems on hundreds or thousands of CPUs.
  For ELPA, please cite:

    Andreas Marek, Volker Blum, Rainer Johanni, Ville Havu, Bruno Lang,
    Thomas Auckenthaler, Alexander Heinecke, Hans-Joachim Bungartz, and Hermann Lederer,
    'The ELPA Library - Scalable Parallel Eigenvalue Solutions
    for Electronic Structure Theory and Computational Science'
    The Journal of Physics: Condensed Matter 26, 213201 (2014).
    http://dx.doi.org/10.1088/0953-8984/26/21/213201


  The ELSI infrastructure was used in your run to solve the Kohn-Sham electronic structure.
  Please check out http://elsi-interchange.org to learn more.
  If scalability is important for your project, please acknowledge ELSI by citing:

    V. W-z. Yu, F. Corsetti, A. Garcia, W. P. Huhn, M. Jacquelin, W. Jia,
    B. Lange, L. Lin, J. Lu, W. Mi, A. Seifitokaldani, A. Vazquez-Mayagoitia,
    C. Yang, H. Yang, and V. Blum
    'ELSI: A unified software interface for Kohn-Sham electronic structure solvers'
    Computer Physics Communications 222, 267-285 (2018).
    http://dx.doi.org/10.1016/j.cpc.2017.09.007


  For the real-space grid partitioning and parallelization used in this calculation, please cite:

    Ville Havu, Volker Blum, Paula Havu, and Matthias Scheffler,
    'Efficient O(N) integration for all-electron electronic structure calculation'
    'using numerically tabulated basis functions'
    Journal of Computational Physics 228, 8367-8379 (2009).
    http://dx.doi.org/10.1016/j.jcp.2009.08.008

  Of course, there are many other important community references, e.g., those cited in the
  above references. Our list is limited to references that describe implementations in the
  FHI-aims code. The reason is purely practical (length of this list) - please credit others as well.

------------------------------------------------------------
          Leaving FHI-aims.
          Date     :  20200805, Time     :  184701.629

          Computational steps:
          | Number of self-consistency cycles          :           16
          | Number of SCF (re)initializations          :            1

          Detailed time accounting                     :  max(cpu_time)    wall_clock(cpu1)
          | Total time                                 :       22.848 s          22.931 s
          | Preparation time                           :        0.147 s           0.148 s
          | Boundary condition initalization           :        0.000 s           0.000 s
          | Grid partitioning                          :        0.111 s           0.111 s
          | Preloading free-atom quantities on grid    :        0.002 s           0.003 s
          | Free-atom superposition energy             :        0.085 s           0.088 s
          | Total time for integrations                :        8.671 s           8.689 s
          | Total time for solution of K.-S. equations :        0.036 s           0.040 s
          | Total time for density & force components  :        7.174 s           7.191 s
          | Total time for mixing                      :        0.219 s           0.218 s
          | Total time for Hartree multipole update    :        0.142 s           0.146 s
          | Total time for Hartree multipole sum       :        5.860 s           5.871 s
          | Total time for total energy evaluation     :        0.003 s           0.003 s
          | Total time for vdW correction              :        0.089 s           0.090 s

          Partial memory accounting:
          | Residual value for overall tracked memory usage across tasks :           0.000 MB (should be 0.000 MB)
          | Peak values for overall tracked memory usage (after allocating hessian_basis_wave):
          |   Minimum:        1.622 MB (on task 1)
          |   Maximum:        1.622 MB (on task 1)
          |   Average:        1.622 MB
          | Largest tracked array allocation (hessian_basis_wave):
          |   Minimum:        0.794 MB (on task 1)
          |   Maximum:        0.794 MB (on task 1)
          |   Average:        0.794 MB
          Note:  These values currently only include a subset of arrays which are explicitly tracked.
          The "true" memory usage will be greater.

          Have a nice day.
------------------------------------------------------------
