  MPI-parallelism will be employed.
------------------------------------------------------------
          Invoking FHI-aims ...
          Version 171221_1
          Compiled on 2019/09/09 at 14:39:39 on host puhti-login2.bullx.

          When using FHI-aims, please cite the following reference:

          Volker Blum, Ralf Gehrke, Felix Hanke, Paula Havu,
          Ville Havu, Xinguo Ren, Karsten Reuter, and Matthias Scheffler,
          'Ab Initio Molecular Simulations with Numeric Atom-Centered Orbitals',
          Computer Physics Communications 180, 2175-2196 (2009)

          For any questions about FHI-aims, please visit the aimsclub website
          with its forums and wiki. Contributions to both the forums and the
          wiki are warmly encouraged - they are for you, and everyone is welcome there.

------------------------------------------------------------



  Date     :  20200805, Time     :  182858.371
  Time zero on CPU 1             :   0.118220000000000E-01  s.
  Internal wall clock time zero  :           365884138.371  s.

  FHI-aims created a unique identifier for this run for later identification
  aims_uuid : 5456A999-AC1D-411E-A1C3-EB093A929D0F

  Using        1 parallel tasks.
  Task        0 on host r16c03.bullx reporting.

  Performing system and environment tests:
  | Environment variable OMP_NUM_THREADS correctly set to 1.
  | Stacksize not measured: no C compiler
  | Checking for scalapack...
  | Testing pdtran()...
  | All pdtran() tests passed.

  Obtaining array dimensions for all initial allocations:
  
  -----------------------------------------------------------------------
  Parsing control.in (first pass over file, find array dimensions only).
  The contents of control.in will be repeated verbatim below
  unless switched off by setting 'verbatim_writeout .false.' .
  in the first line of control.in .
  -----------------------------------------------------------------------
  
  #########################################################################################
  #
  #  Volker Blum, FHI 2009 : Test run input file control.in for simple H2O
  #
  #########################################################################################
  #
  #  Physical model
  #
    xc                 pbe
    vdw_correction_hirshfeld
    spin               none
    relativistic       none
    charge             0.
  #
  #  SCF convergence
  #
    occupation_type    gaussian 0.01
    mixer              pulay
      n_max_pulay        10
      charge_mix_param   0.2
    sc_accuracy_rho    1E-5
    sc_accuracy_eev    1E-3
    sc_accuracy_etot   1E-6
    sc_accuracy_forces 1E-4
    sc_iter_limit      100
  #
  #  Relaxation
  #
  #  relax_geometry   bfgs 1.e-3
  #
  ################################################################################
  #
  #  FHI-aims code project
  #  VB, Fritz-Haber Institut, 2009
  #
  #  Suggested "light" defaults for H atom (to be pasted into control.in file)
  #  Be sure to double-check any results obtained with these settings for post-processing,
  #  e.g., with the "tight" defaults and larger basis sets.
  #
  ################################################################################
    species        H
  #     global species definitions
      nucleus             1
      mass                1.00794
  #
      l_hartree           4
  #
      cut_pot             3.5  1.5  1.0
      basis_dep_cutoff    1e-4
  #
      radial_base         24 5.0
      radial_multiplier   1
      angular_grids       specified
        division   0.2421   50
        division   0.3822  110
        division   0.4799  194
        division   0.5341  302
  #      division   0.5626  434
  #      division   0.5922  590
  #      division   0.6542  770
  #      division   0.6868 1202
  #      outer_grid  770
        outer_grid  302
  ################################################################################
  #
  #  Definition of "minimal" basis
  #
  ################################################################################
  #     valence basis states
      valence      1  s   1.
  #     ion occupancy
      ion_occ      1  s   0.5
  ################################################################################
  #
  #  Suggested additional basis functions. For production calculations,
  #  uncomment them one after another (the most important basis functions are
  #  listed first).
  #
  #  Basis constructed for dimers: 0.5 A, 0.7 A, 1.0 A, 1.5 A, 2.5 A
  #
  ################################################################################
  #  "First tier" - improvements: -1014.90 meV to -62.69 meV
       hydro 2 s 2.1
       hydro 2 p 3.5
  #  "Second tier" - improvements: -12.89 meV to -1.83 meV
  #     hydro 1 s 0.85
  #     hydro 2 p 3.7
  #     hydro 2 s 1.2
  #     hydro 3 d 7
  #  "Third tier" - improvements: -0.25 meV to -0.12 meV
  #     hydro 4 f 11.2
  #     hydro 3 p 4.8
  #     hydro 4 d 9
  #     hydro 3 s 3.2
  ################################################################################
  #
  #  FHI-aims code project
  #  VB, Fritz-Haber Institut, 2009
  #
  #  Suggested "light" defaults for C atom (to be pasted into control.in file)
  #  Be sure to double-check any results obtained with these settings for post-processing,
  #  e.g., with the "tight" defaults and larger basis sets.
  #
  ################################################################################
    species        C
  #     global species definitions
      nucleus             6
      mass                12.0107
  #
      l_hartree           4
  #
      cut_pot             3.5  1.5  1.0
      basis_dep_cutoff    1e-4
  #
      radial_base         34 5.0
      radial_multiplier   1
      angular_grids specified
        division   0.3326   50
        division   0.5710  110
        division   0.7727  194
        division   0.8772  302
  #      division   0.9334  434
  #      division   0.9625  590
  #      division   0.9924  770
  #      division   1.0230  974
  #      division   1.4589 1202
  #     outer_grid  974
       outer_grid 302
  ################################################################################
  #
  #  Definition of "minimal" basis
  #
  ################################################################################
  #     valence basis states
      valence      2  s   2.
      valence      2  p   2.
  #     ion occupancy
      ion_occ      2  s   1.
      ion_occ      2  p   1.
  ################################################################################
  #
  #  Suggested additional basis functions. For production calculations,
  #  uncomment them one after another (the most important basis functions are
  #  listed first).
  #
  #  Constructed for dimers: 1.0 A, 1.25 A, 1.5 A, 2.0 A, 3.0 A
  #
  ################################################################################
  #  "First tier" - improvements: -1214.57 meV to -155.61 meV
       hydro 2 p 1.7
       hydro 3 d 6
       hydro 2 s 4.9
  #  "Second tier" - improvements: -67.75 meV to -5.23 meV
  #     hydro 4 f 9.8
  #     hydro 3 p 5.2
  #     hydro 3 s 4.3
  #     hydro 5 g 14.4
  #     hydro 3 d 6.2
  #  "Third tier" - improvements: -2.43 meV to -0.60 meV
  #     hydro 2 p 5.6
  #     hydro 2 s 1.4
  #     hydro 3 d 4.9
  #     hydro 4 f 11.2
  #  "Fourth tier" - improvements: -0.39 meV to -0.18 meV
  #     hydro 2 p 2.1
  #     hydro 5 g 16.4
  #     hydro 4 d 13.2
  #     hydro 3 s 13.6
  #     hydro 4 f 17.6
  #  Further basis functions - improvements: -0.08 meV and below
  #     hydro 3 s 2
  #     hydro 3 p 6
  #     hydro 4 d 20
  ################################################################################
  #
  #  FHI-aims code project
  #  VB, Fritz-Haber Institut, 2009
  #
  #  Suggested "light" defaults for N atom (to be pasted into control.in file)
  #  Be sure to double-check any results obtained with these settings for post-processing,
  #  e.g., with the "tight" defaults and larger basis sets.
  #
  ################################################################################
    species        N
  #     global species definitions
      nucleus             7
      mass                14.0067
  #
      l_hartree           4
  #
      cut_pot             3.5  1.5  1.0
      basis_dep_cutoff    1e-4
  #
      radial_base         35 5.0
      radial_multiplier   1
      angular_grids       specified
        division   0.2599   50
        division   0.4601  110
        division   0.5885  194
        division   0.6503  302
  #      division   0.6939  434
  #      division   0.7396  590
  #      division   0.7632  770
  #      division   0.8122  974
  #      division   1.1604 1202
  #      outer_grid  974
        outer_grid  302
  ################################################################################
  #
  #  Definition of "minimal" basis
  #
  ################################################################################
  #     valence basis states
      valence      2  s   2.
      valence      2  p   3.
  #     ion occupancy
      ion_occ      2  s   1.
      ion_occ      2  p   2.
  ################################################################################
  #
  #  Suggested additional basis functions. For production calculations,
  #  uncomment them one after another (the most important basis functions are
  #  listed first).
  #
  #  Constructed for dimers: 1.0 A, 1.1 A, 1.5 A, 2.0 A, 3.0 A
  #
  ################################################################################
  #  "First tier" - improvements: -1193.42 meV to -220.60 meV
       hydro 2 p 1.8
       hydro 3 d 6.8
       hydro 3 s 5.8
  #  "Second tier" - improvements: -80.21 meV to -6.86 meV
  #     hydro 4 f 10.8
  #     hydro 3 p 5.8
  #     hydro 1 s 0.8
  #     hydro 5 g 16
  #     hydro 3 d 4.9
  #  "Third tier" - improvements: -4.29 meV to -0.53 meV
  #     hydro 3 s 16
  #     ionic 2 p auto
  #     hydro 3 d 6.6
  #     hydro 4 f 11.6
  #  "Fourth tier" - improvements: -0.75 meV to -0.25 meV
  #     hydro 2 p 4.5
  #     hydro 2 s 2.4
  #     hydro 5 g 14.4
  #     hydro 4 d 14.4
  #     hydro 4 f 16.8
  # Further basis functions - -0.21 meV and below
  #     hydro 3 p 14.8
  #     hydro 3 s 4.4
  #     hydro 3 d 19.6
  #     hydro 5 g 12.8
  ################################################################################
  #
  #  FHI-aims code project
  #  VB, Fritz-Haber Institut, 2009
  #
  #  Suggested "light" defaults for O atom (to be pasted into control.in file)
  #  Be sure to double-check any results obtained with these settings for post-processing,
  #  e.g., with the "tight" defaults and larger basis sets.
  #
  ################################################################################
    species        O
  #     global species definitions
      nucleus             8
      mass                15.9994
  #
      l_hartree           4
  #
      cut_pot             3.5  1.5  1.0
      basis_dep_cutoff    1e-4
  #
      radial_base         36 5.0
      radial_multiplier   1
       angular_grids specified
        division   0.2659   50
        division   0.4451  110
        division   0.6052  194
        division   0.7543  302
  #      division   0.8014  434
  #      division   0.8507  590
  #      division   0.8762  770
  #      division   0.9023  974
  #      division   1.2339 1202
  #      outer_grid 974
        outer_grid 302
  ################################################################################
  #
  #  Definition of "minimal" basis
  #
  ################################################################################
  #     valence basis states
      valence      2  s   2.
      valence      2  p   4.
  #     ion occupancy
      ion_occ      2  s   1.
      ion_occ      2  p   3.
  ################################################################################
  #
  #  Suggested additional basis functions. For production calculations,
  #  uncomment them one after another (the most important basis functions are
  #  listed first).
  #
  #  Constructed for dimers: 1.0 A, 1.208 A, 1.5 A, 2.0 A, 3.0 A
  #
  ################################################################################
  #  "First tier" - improvements: -699.05 meV to -159.38 meV
       hydro 2 p 1.8
       hydro 3 d 7.6
       hydro 3 s 6.4
  #  "Second tier" - improvements: -49.91 meV to -5.39 meV
  #     hydro 4 f 11.6
  #     hydro 3 p 6.2
  #     hydro 3 d 5.6
  #     hydro 5 g 17.6
  #     hydro 1 s 0.75
  #  "Third tier" - improvements: -2.83 meV to -0.50 meV
  #     ionic 2 p auto
  #     hydro 4 f 10.8
  #     hydro 4 d 4.7
  #     hydro 2 s 6.8
  #  "Fourth tier" - improvements: -0.40 meV to -0.12 meV
  #     hydro 3 p 5
  #     hydro 3 s 3.3
  #     hydro 5 g 15.6
  #     hydro 4 f 17.6
  #     hydro 4 d 14
  # Further basis functions - -0.08 meV and below
  #     hydro 3 s 2.1
  #     hydro 4 d 11.6
  #     hydro 3 p 16
  #     hydro 2 s 17.2
  
  -----------------------------------------------------------------------
  Completed first pass over input file control.in .
  -----------------------------------------------------------------------
  
  
  -----------------------------------------------------------------------
  Parsing geometry.in (first pass over file, find array dimensions only).
  The contents of geometry.in will be repeated verbatim below
  unless switched off by setting 'verbatim_writeout .false.' .
  in the first line of geometry.in .
  -----------------------------------------------------------------------
  
  atom  0.00000 0.00000 0.00000 C
  atom  1.09300 0.00000 0.00000 H
  atom  -0.47961 0.00000 -1.41207 N
  atom  0.06237 0.68389 -1.94159 H
  atom  -0.34821 -0.93107 -1.80190 H
  atom  -0.49584 1.26211 0.72868 C
  atom  -1.58789 1.28919 0.74431 H
  atom  -0.13407 1.27425 1.75947 H
  atom  -0.13407 2.16087 0.22380 H
  atom  -0.39425 -1.28861 0.74398 C
  atom  -0.10189 -1.56493 1.88303 O
  atom  -1.10210 -2.13717 0.06896 O
  atom  -1.16439 -2.83650 0.74130 H
  
  -----------------------------------------------------------------------
  Completed first pass over input file geometry.in .
  -----------------------------------------------------------------------
  

  Basic array size parameters:
  | Number of species                 :        4
  | Number of atoms                   :       13
  | Max. basis fn. angular momentum   :        2
  | Max. atomic/ionic basis occupied n:        2
  | Max. number of basis fn. types    :        2
  | Max. radial fns per species/type  :        3
  | Max. logarithmic grid size        :     1301
  | Max. radial integration grid size :       36
  | Max. angular integration grid size:      302
  | Max. angular grid division number :        8
  | Radial grid for Hartree potential :     1301
  | Number of spin channels           :        1

------------------------------------------------------------
          Reading file control.in.
------------------------------------------------------------
  XC: Using PBE gradient-corrected functionals.
  Spin treatment: No spin polarisation.
  Non-relativistic treatment of kinetic energy.
  Charge =   0.000000E+00: Neutral system requested explicitly.
  Occupation type: Gaussian broadening, width =   0.100000E-01 eV.
  Using pulay charge density mixing.
  Pulay mixing - number of memorized iterations:   10
  Charge density mixing - mixing parameter:     0.2000
  Convergence accuracy of self-consistent charge density:  0.1000E-04
  Convergence accuracy of sum of eigenvalues:  0.1000E-02
  Convergence accuracy of total energy:  0.1000E-05
  Convergence accuracy of forces:  0.1000E-03
  Maximum number of s.-c. iterations  :   100
 
  Reading configuration options for species H                   .
  | Found nuclear charge :   1.0000
  | Found atomic mass :    1.00794000000000      amu
  | Found l_max for Hartree potential  :   4
  | Found cutoff potl. onset [A], width [A], scale factor :    3.50000    1.50000    1.00000
  | Threshold for basis-dependent cutoff potential is   0.100000E-03
  | Found data for basic radial integration grid :    24 points, outermost radius =    5.000 A
  | Found multiplier for basic radial grid :   1
  | Found angular grid specification: user-specified.
  | Specified grid contains     5 separate shells.
  | Check grid settings after all constraints further below.
  | Found free-atom valence shell :  1 s   1.000
  | No ionic wave fns used. Skipping ion_occ.
  | Found hydrogenic basis function :  2 s   2.100
  | Found hydrogenic basis function :  2 p   3.500
  Species H                   : Missing cutoff potential type.
  Defaulting to exp(1/x)/(1-x)^2 type cutoff potential.
  Species H : No 'logarithmic' tag. Using default grid for free atom:
  | Default logarithmic grid data [bohr] : 0.1000E-03 0.1000E+03 0.1012E+01
  Species H : On-site basis accuracy parameter (for Gram-Schmidt orthonormalisation) not specified.
  Using default value basis_acc =  0.1000000E-03.
  Species H                   : Using default innermost maximum threshold i_radial=  2 for radial functions.
  Species H                   : Default cutoff onset for free atom density etc. : 0.35000000E+01 AA.
  Species H                   : Basic radial grid will be enhanced according to radial_multiplier =   1, to contain    24 grid points.
 
  Reading configuration options for species C                   .
  | Found nuclear charge :   6.0000
  | Found atomic mass :    12.0107000000000      amu
  | Found l_max for Hartree potential  :   4
  | Found cutoff potl. onset [A], width [A], scale factor :    3.50000    1.50000    1.00000
  | Threshold for basis-dependent cutoff potential is   0.100000E-03
  | Found data for basic radial integration grid :    34 points, outermost radius =    5.000 A
  | Found multiplier for basic radial grid :   1
  | Found angular grid specification: user-specified.
  | Specified grid contains     5 separate shells.
  | Check grid settings after all constraints further below.
  | Found free-atom valence shell :  2 s   2.000
  | Found free-atom valence shell :  2 p   2.000
  | No ionic wave fns used. Skipping ion_occ.
  | No ionic wave fns used. Skipping ion_occ.
  | Found hydrogenic basis function :  2 p   1.700
  | Found hydrogenic basis function :  3 d   6.000
  | Found hydrogenic basis function :  2 s   4.900
  Species C                   : Missing cutoff potential type.
  Defaulting to exp(1/x)/(1-x)^2 type cutoff potential.
  Species C : No 'logarithmic' tag. Using default grid for free atom:
  | Default logarithmic grid data [bohr] : 0.1000E-03 0.1000E+03 0.1012E+01
  Species C : On-site basis accuracy parameter (for Gram-Schmidt orthonormalisation) not specified.
  Using default value basis_acc =  0.1000000E-03.
  Species C                   : Using default innermost maximum threshold i_radial=  2 for radial functions.
  Species C                   : Default cutoff onset for free atom density etc. : 0.35000000E+01 AA.
  Species C                   : Basic radial grid will be enhanced according to radial_multiplier =   1, to contain    34 grid points.
 
  Reading configuration options for species N                   .
  | Found nuclear charge :   7.0000
  | Found atomic mass :    14.0067000000000      amu
  | Found l_max for Hartree potential  :   4
  | Found cutoff potl. onset [A], width [A], scale factor :    3.50000    1.50000    1.00000
  | Threshold for basis-dependent cutoff potential is   0.100000E-03
  | Found data for basic radial integration grid :    35 points, outermost radius =    5.000 A
  | Found multiplier for basic radial grid :   1
  | Found angular grid specification: user-specified.
  | Specified grid contains     5 separate shells.
  | Check grid settings after all constraints further below.
  | Found free-atom valence shell :  2 s   2.000
  | Found free-atom valence shell :  2 p   3.000
  | No ionic wave fns used. Skipping ion_occ.
  | No ionic wave fns used. Skipping ion_occ.
  | Found hydrogenic basis function :  2 p   1.800
  | Found hydrogenic basis function :  3 d   6.800
  | Found hydrogenic basis function :  3 s   5.800
  Species N                   : Missing cutoff potential type.
  Defaulting to exp(1/x)/(1-x)^2 type cutoff potential.
  Species N : No 'logarithmic' tag. Using default grid for free atom:
  | Default logarithmic grid data [bohr] : 0.1000E-03 0.1000E+03 0.1012E+01
  Species N : On-site basis accuracy parameter (for Gram-Schmidt orthonormalisation) not specified.
  Using default value basis_acc =  0.1000000E-03.
  Species N                   : Using default innermost maximum threshold i_radial=  2 for radial functions.
  Species N                   : Default cutoff onset for free atom density etc. : 0.35000000E+01 AA.
  Species N                   : Basic radial grid will be enhanced according to radial_multiplier =   1, to contain    35 grid points.
 
  Reading configuration options for species O                   .
  | Found nuclear charge :   8.0000
  | Found atomic mass :    15.9994000000000      amu
  | Found l_max for Hartree potential  :   4
  | Found cutoff potl. onset [A], width [A], scale factor :    3.50000    1.50000    1.00000
  | Threshold for basis-dependent cutoff potential is   0.100000E-03
  | Found data for basic radial integration grid :    36 points, outermost radius =    5.000 A
  | Found multiplier for basic radial grid :   1
  | Found angular grid specification: user-specified.
  | Specified grid contains     5 separate shells.
  | Check grid settings after all constraints further below.
  | Found free-atom valence shell :  2 s   2.000
  | Found free-atom valence shell :  2 p   4.000
  | No ionic wave fns used. Skipping ion_occ.
  | No ionic wave fns used. Skipping ion_occ.
  | Found hydrogenic basis function :  2 p   1.800
  | Found hydrogenic basis function :  3 d   7.600
  | Found hydrogenic basis function :  3 s   6.400
  Species O                   : Missing cutoff potential type.
  Defaulting to exp(1/x)/(1-x)^2 type cutoff potential.
  Species O : No 'logarithmic' tag. Using default grid for free atom:
  | Default logarithmic grid data [bohr] : 0.1000E-03 0.1000E+03 0.1012E+01
  Species O : On-site basis accuracy parameter (for Gram-Schmidt orthonormalisation) not specified.
  Using default value basis_acc =  0.1000000E-03.
  Species O                   : Using default innermost maximum threshold i_radial=  2 for radial functions.
  Species O                   : Default cutoff onset for free atom density etc. : 0.35000000E+01 AA.
  Species O                   : Basic radial grid will be enhanced according to radial_multiplier =   1, to contain    36 grid points.
 
  Finished reading input file 'control.in'. Consistency checks are next.
 
  MPI_IN_PLACE appears to work with this MPI implementation.
  | Keeping use_mpi_in_place .true. (see manual).
  Target number of points in a grid batch is not set. Defaulting to  100
  Method for grid partitioning is not set. Defaulting to parallel hash+maxmin partitioning.
  Batch size limit is not set. Defaulting to    200
  By default, will store active basis functions for each batch.
  If in need of memory, prune_basis_once .false. can be used to disable this option.
  communication_type for Hartree potential was not specified.
  Defaulting to calc_hartree .
  Pulay mixer: Number of initial linear mixing iterations not set.
  Defaulting to    0 iterations.
  Work space size for distributed Hartree potential not set.
  Defaulting to   0.200000E+03 MB.
  Algorithm-dependent basis array size parameters:
  | n_max_pulay                         :       10
  Presetting      1001 iterations before the initial mixing cycle
  is restarted anyway using the sc_init_iter criterion / keyword.
  Presetting a factor      1.000 between actual scf density residual
  and density convergence criterion sc_accuracy_rho below which sc_init_iter
  takes no effect.
  Geometry relaxation not requested: no relaxation will be performed.
  Handling of forces: Unphysical translation and rotation will be removed from forces.
  No accuracy limit for integral partition fn. given. Defaulting to  0.1000E-14.
  No threshold value for u(r) in integrations given. Defaulting to  0.1000E-05.
  No accuracy for occupation numbers given. Defaulting to  0.1000E-12.
  No threshold value for occupation numbers given. Defaulting to  0.0000E+00.
  No accuracy for fermi level given. Defaulting to  0.1000E-19.
  Maximum # of iterations to find E_F not set. Defaulting to  200.
  Preferred method for the eigenvalue solver ('KS_method') not specified in 'control.in'.
  Defaulting to serial version, 'lapack_fast'.
  Will not use alltoall communication since running on < 1024 CPUs.
  Threshold for basis singularities not set.
  Default threshold for basis singularities:  0.1000E-04
  partition_type (choice of integration weights) for integrals was not specified.
  | Using a version of the partition function of Stratmann and coworkers ('stratmann_smoother').
  | At each grid point, the set of atoms used to build the partition table is smoothly restricted to
  | only those atoms whose free-atom density would be non-zero at that grid point.
  Partitioning for Hartree potential was not defined. Using partition_type for integrals.
  | Adjusted default value of keyword multip_moments_threshold to:       0.10000000E-11
  | This value may affect high angular momentum components of the Hartree potential in periodic systems.
  No q(lm)/r^(l+1) cutoff set for long-range Hartree potential.
  | Using default value of  0.100000E-09 .
  | Verify using the multipole_threshold keyword.
  Defaulting to new monopole extrapolation.
  Density update method: automatic selection selected.
------------------------------------------------------------


------------------------------------------------------------
          Reading geometry description geometry.in.
------------------------------------------------------------
  Input structure read successfully.
  The structure contains       13 atoms,  and a total of         48.000 electrons.

  Input geometry:
  | No unit cell requested.
  | Atomic structure:
  |       Atom                x [A]            y [A]            z [A]
  |    1: Species C             0.00000000        0.00000000        0.00000000
  |    2: Species H             1.09300000        0.00000000        0.00000000
  |    3: Species N            -0.47961000        0.00000000       -1.41207000
  |    4: Species H             0.06237000        0.68389000       -1.94159000
  |    5: Species H            -0.34821000       -0.93107000       -1.80190000
  |    6: Species C            -0.49584000        1.26211000        0.72868000
  |    7: Species H            -1.58789000        1.28919000        0.74431000
  |    8: Species H            -0.13407000        1.27425000        1.75947000
  |    9: Species H            -0.13407000        2.16087000        0.22380000
  |   10: Species C            -0.39425000       -1.28861000        0.74398000
  |   11: Species O            -0.10189000       -1.56493000        1.88303000
  |   12: Species O            -1.10210000       -2.13717000        0.06896000
  |   13: Species H            -1.16439000       -2.83650000        0.74130000
  |

  | The smallest distance between any two atoms is         0.97210265 AA.
  |
  | The first atom of this pair is atom number                     12 .
  | The second atom of this pair is atom number                    13 .

  Number of empty states per atom not set in control.in - providing a guess from actual geometry.
  | Total number of empty states used during s.c.f. cycle:       29
  If you use a very high smearing, use empty_states (per atom!) in control.in to increase this value.

  Structure-dependent array size parameters: 
  | Maximum number of distinct radial functions  :       21
  | Maximum number of basis functions            :      119
  | Number of Kohn-Sham states (occupied + empty):       53
------------------------------------------------------------

------------------------------------------------------------
          Preparing all fixed parts of the calculation.
------------------------------------------------------------
  Determining machine precision:
    2.225073858507201E-308
  Setting up grids for atomic and cluster calculations.

  Creating wave function, potential, and density for free atoms.

  Species: H

  List of occupied orbitals and eigenvalues:
    n    l              occ      energy [Ha]    energy [eV]
    1    0           1.0000        -0.237589        -6.4651


  Species: C

  List of occupied orbitals and eigenvalues:
    n    l              occ      energy [Ha]    energy [eV]
    1    0           2.0000       -10.038835      -273.1706
    2    0           2.0000        -0.502696       -13.6791
    2    1           2.0000        -0.191971        -5.2238


  Species: N

  List of occupied orbitals and eigenvalues:
    n    l              occ      energy [Ha]    energy [eV]
    1    0           2.0000       -14.128000      -384.4424
    2    0           2.0000        -0.681077       -18.5330
    2    1           3.0000        -0.259788        -7.0692


  Species: O

  List of occupied orbitals and eigenvalues:
    n    l              occ      energy [Ha]    energy [eV]
    1    0           2.0000       -18.898188      -514.2459
    2    0           2.0000        -0.878505       -23.9053
    2    1           4.0000        -0.331779        -9.0282

  Creating fixed part of basis set: Ionic, confined, hydrogenic.
 
  H                    hydrogenic:
 
  List of hydrogenic basis orbitals: 
    n    l      effective z      eigenvalue [eV]  inner max. [A]     outer max. [A]     outer radius [A]   
    2    0         2.100000       -14.9728           0.193243           1.317208           4.583499
    2    1         3.500000       -41.6669           0.602369           0.602369           3.723403
 
 
  C                    hydrogenic:
 
  List of hydrogenic basis orbitals: 
    n    l      effective z      eigenvalue [eV]  inner max. [A]     outer max. [A]     outer radius [A]   
    2    1         1.700000        -9.7616           1.230570           1.230570           4.607917
    3    2         6.000000       -54.4224           0.792453           0.792453           3.883070
    2    0         4.900000       -81.6679           0.082559           0.562749           3.078220
 
 
  N                    hydrogenic:
 
  List of hydrogenic basis orbitals: 
    n    l      effective z      eigenvalue [eV]  inner max. [A]     outer max. [A]     outer radius [A]   
    2    1         1.800000       -10.9749           1.177451           1.177451           4.573712
    3    2         6.800000       -69.9026           0.704619           0.704619           3.538137
    3    0         5.800000       -50.8545           0.067388           1.191934           4.250239
 
 
  O                    hydrogenic:
 
  List of hydrogenic basis orbitals: 
    n    l      effective z      eigenvalue [eV]  inner max. [A]     outer max. [A]     outer radius [A]   
    2    1         1.800000       -10.9749           1.164242           1.164242           4.578029
    3    2         7.600000       -87.3180           0.624125           0.624125           3.251020
    3    0         6.400000       -61.9207           0.061167           1.081902           4.001998
 

  Adding cutoff potential to free-atom effective potential.
  Creating atomic-like basis functions for current effective potential.

  Species H                   :

  List of atomic basis orbitals and eigenvalues:
    n    l      energy [Ha]    energy [eV]    outer radius [A]
    1    0        -0.237589        -6.4651       4.527807


  Species C                   :

  List of atomic basis orbitals and eigenvalues:
    n    l      energy [Ha]    energy [eV]    outer radius [A]
    1    0       -10.038835      -273.1706       1.934409
    2    0        -0.502696       -13.6791       4.496620
    2    1        -0.191971        -5.2238       4.551928


  Species N                   :

  List of atomic basis orbitals and eigenvalues:
    n    l      energy [Ha]    energy [eV]    outer radius [A]
    1    0       -14.128000      -384.4424       1.637919
    2    0        -0.681077       -18.5330       4.463241
    2    1        -0.259788        -7.0692       4.518138


  Species O                   :

  List of atomic basis orbitals and eigenvalues:
    n    l      energy [Ha]    energy [eV]    outer radius [A]
    1    0       -18.898188      -514.2459       1.415765
    2    0        -0.878505       -23.9053       4.413171
    2    1        -0.331779        -9.0282       4.522403

  Assembling full basis from fixed parts.
  | Species H :   atomic orbital   1 s accepted.
  | Species H :    hydro orbital   2 s accepted.
  | Species H :    hydro orbital   2 p accepted.
  | Species C :   atomic orbital   1 s accepted.
  | Species C :    hydro orbital   2 s accepted.
  | Species C :   atomic orbital   2 s accepted.
  | Species C :   atomic orbital   2 p accepted.
  | Species C :    hydro orbital   2 p accepted.
  | Species C :    hydro orbital   3 d accepted.
  | Species N :   atomic orbital   1 s accepted.
  | Species N :    hydro orbital   3 s accepted.
  | Species N :   atomic orbital   2 s accepted.
  | Species N :   atomic orbital   2 p accepted.
  | Species N :    hydro orbital   2 p accepted.
  | Species N :    hydro orbital   3 d accepted.
  | Species O :   atomic orbital   1 s accepted.
  | Species O :    hydro orbital   3 s accepted.
  | Species O :   atomic orbital   2 s accepted.
  | Species O :   atomic orbital   2 p accepted.
  | Species O :    hydro orbital   2 p accepted.
  | Species O :    hydro orbital   3 d accepted.
 
  Basis size parameters after reduction:
  | Total number of radial functions:       21
  | Total number of basis functions :      119
 
  Per-task memory consumption for arrays in subroutine allocate_ext:
  |           5.250512MB.
  Testing on-site integration grid accuracy.
  |  Species  Function  <phi|h_atom|phi> (log., in eV)  <phi|h_atom|phi> (rad., in eV)
           1        1                 -6.4663192853                 -6.4651273558
           1        2                 13.7111246313                 13.7170609718
           1        3                 25.2673269279                 25.2674696378
           2        4               -273.1705927641               -273.1705631568
           2        5                -10.7109323383                -10.7107120029
           2        6                 17.4381822266                 17.4352413244
           2        7                 -5.2255326521                 -5.2270484734
           2        8                  8.6835629259                  8.6603288385
           2        9                 27.4952418996                 27.4953360207
           3       10               -384.4424306495               -384.4423701208
           3       11                 12.5842251816                 12.5842222903
           3       12                -15.7264628251                -15.7264433455
           3       13                 -7.0696854293                 -7.0701769954
           3       14                  8.8090390882                  8.7901077751
           3       15                 35.9586762123                 35.9588528632
           4       16               -514.2458688638               -514.2457643834
           4       17                 15.1795651126                 15.1795290741
           4       18                -21.5359799773                -21.5360846186
           4       19                 -9.0283069236                 -9.0284644067
           4       20                  8.3027758564                  8.2834874195
           4       21                 45.8339351984                 45.8338762259

  Preparing densities etc. for the partition functions (integrals / Hartree potential).

  Preparations completed.
  max(cpu_time)          :      0.148 s.
  Wall clock time (cpu1) :      0.150 s.
------------------------------------------------------------

------------------------------------------------------------
          Begin self-consistency loop: Initialization.

          Date     :  20200805, Time     :  182858.540
------------------------------------------------------------

  Initializing index lists of integration centers etc. from given atomic structure:
  | Number of centers in hartree potential         :        13
  | Number of centers in hartree multipole         :        13
  | Number of centers in electron density summation:        13
  | Number of centers in basis integrals           :        13
  | Number of centers in integrals                 :        13
  | Number of centers in hamiltonian               :        13
  Partitioning the integration grid into batches with parallel hashing+maxmin method.
  | Number of batches:      956
  | Maximal batch size:     139
  | Minimal batch size:      66
  | Average batch size:      72.851
  | Standard deviation of batch sizes:      17.460

  Integration load balanced across     1 MPI tasks.
  Work distribution over tasks is as follows:
  Task     0 has      69646 integration points.
  Initializing partition tables, free-atom densities, potentials, etc. across the integration grid (initialize_grid_storage).
  | initialize_grid_storage: Actual outermost partition radius vs. multipole_radius_free
  | (-- VB: in principle, multipole_radius_free should be larger, hence this output)
  | Species        1: Confinement radius =              4.999999999999999 AA, multipole_radius_free =              5.054417573612229 AA.
  | Species        1: outer_partition_radius set to              5.054417573612229 AA .
  | Species        2: Confinement radius =              4.999999999999999 AA, multipole_radius_free =              5.019602836301480 AA.
  | Species        2: outer_partition_radius set to              5.019602836301480 AA .
  | Species        3: Confinement radius =              4.999999999999999 AA, multipole_radius_free =              5.043624274424571 AA.
  | Species        3: outer_partition_radius set to              5.043624274424571 AA .
  | Species        4: Confinement radius =              4.999999999999999 AA, multipole_radius_free =              5.048384829883283 AA.
  | Species        4: outer_partition_radius set to              5.048384829883283 AA .
  | Original list of interatomic distances with          13 x         13 entries is created.
  | Net number of integration points:    69646
  | of which are non-zero points    :    59640
  Renormalizing the initial density to the exact electron count on the 3D integration grid.
  | Initial density: Formal number of electrons (from input files) :      48.0000000000
  | Integrated number of electrons on 3D grid     :      47.9999025358
  | Charge integration error                      :      -0.0000974642
  | Normalization factor for density and gradient :       1.0000020305
  Obtaining max. number of non-zero basis functions in each batch (get_n_compute_maxes).
  | Maximal number of non-zero basis functions:      119 in task     0
  Selecting the method for density update.
  Loop over occupied states selected for charge density update.
  Allocating        0.050 MB for KS_eigenvector
  Integrating Hamiltonian matrix: batch-based integration.
  Time summed over all CPUs for integration: real work        0.493 s, elapsed        0.493 s
  Integrating overlap matrix.
  Time summed over all CPUs for integration: real work        0.211 s, elapsed        0.211 s

  Updating Kohn-Sham eigenvalues and eigenvectors using ELSI and the ELPA eigensolver.
  Overlap matrix is nonsingular
  | Lowest eigenvalue of overlap  :  0.52E-02
  | Highest eigenvalue of overlap :  0.60E+01
  Finished singularity check of overlap matrix
  | Time :     0.002 s
  Finished Cholesky decomposition
  | Time :     0.000 s
  Finished transformation to standard eigenproblem
  | Time :     0.000 s
  Starting LAPACK eigensolver
  Finished solving standard eigenproblem
  | Time :     0.002 s
  Finished back-transformation of eigenvectors
  | Time :     0.000 s

  Obtaining occupation numbers and chemical potential using ELSI.
  | Chemical potential (Fermi level):    -8.69960054eV
  Writing Kohn-Sham eigenvalues.

  State    Occupation    Eigenvalue [Ha]    Eigenvalue [eV]
      1       2.00000         -19.007865         -517.23031
      2       2.00000         -18.978371         -516.42774
      3       2.00000         -14.245787         -387.64759
      4       2.00000         -10.166633         -276.64815
      5       2.00000         -10.141236         -275.95707
      6       2.00000         -10.132037         -275.70677
      7       2.00000          -1.188557          -32.34229
      8       2.00000          -1.093073          -29.74402
      9       2.00000          -0.991216          -26.97235
     10       2.00000          -0.861483          -23.44214
     11       2.00000          -0.761135          -20.71153
     12       2.00000          -0.679922          -18.50161
     13       2.00000          -0.619191          -16.84906
     14       2.00000          -0.605281          -16.47052
     15       2.00000          -0.585144          -15.92259
     16       2.00000          -0.575310          -15.65497
     17       2.00000          -0.543660          -14.79375
     18       2.00000          -0.529897          -14.41924
     19       2.00000          -0.514124          -13.99002
     20       2.00000          -0.503725          -13.70705
     21       2.00000          -0.482539          -13.13056
     22       2.00000          -0.429307          -11.68204
     23       2.00000          -0.402715          -10.95844
     24       2.00000          -0.388490          -10.57135
     25       0.00000          -0.148203           -4.03280
     26       0.00000          -0.058009           -1.57850
     27       0.00000          -0.027489           -0.74802
     28       0.00000          -0.019242           -0.52361
     29       0.00000           0.005459            0.14855
     30       0.00000           0.012107            0.32944
     31       0.00000           0.016414            0.44666
     32       0.00000           0.029711            0.80847
     33       0.00000           0.044528            1.21166
     34       0.00000           0.056544            1.53865
     35       0.00000           0.079638            2.16705
     36       0.00000           0.132567            3.60732
     37       0.00000           0.151053            4.11035
     38       0.00000           0.200634            5.45954
     39       0.00000           0.211447            5.75377
     40       0.00000           0.220537            6.00112
     41       0.00000           0.261979            7.12882
     42       0.00000           0.279131            7.59554
     43       0.00000           0.293741            7.99310
     44       0.00000           0.298501            8.12262
     45       0.00000           0.337024            9.17089
     46       0.00000           0.357444            9.72655
     47       0.00000           0.389299           10.59336
     48       0.00000           0.425169           11.56944
     49       0.00000           0.438771           11.93956
     50       0.00000           0.465097           12.65593
     51       0.00000           0.472608           12.86032
     52       0.00000           0.532517           14.49053
     53       0.00000           0.599385           16.31011

  Highest occupied state (VBM) at    -10.57134732 eV
  | Occupation number:      2.00000000

  Lowest unoccupied state (CBM) at    -4.03279812 eV
  | Occupation number:      0.00000000

  Overall HOMO-LUMO gap:      6.53854920 eV.
  Calculating total energy contributions from superposition of free atom densities.

  Total energy components:
  | Sum of eigenvalues            :        -188.85339342 Ha       -5138.96230243 eV
  | XC energy correction          :         -41.78686342 Ha       -1137.07840749 eV
  | XC potential correction       :          53.71736692 Ha        1461.72392553 eV
  | Free-atom electrostatic energy:        -146.85213901 Ha       -3996.05001925 eV
  | Hartree energy correction     :           0.00000000 Ha           0.00000000 eV
  | vdW energy correction         :           0.00000000 Ha           0.00000000 eV
  | Entropy correction            :           0.00000000 Ha           0.00000000 eV
  | ---------------------------
  | Total energy                  :        -323.77502893 Ha       -8810.36680363 eV
  | Total energy, T -> 0          :        -323.77502893 Ha       -8810.36680363 eV  <-- do not rely on this value for anything but (periodic) metals
  | Electronic free energy        :        -323.77502893 Ha       -8810.36680363 eV

  Derived energy quantities:
  | Kinetic energy                :         320.47873280 Ha        8720.67002217 eV
  | Electrostatic energy          :        -602.46689831 Ha      -16393.95841832 eV
  | Energy correction for multipole
  | error in Hartree potential    :           0.00000000 Ha           0.00000000 eV
  | Sum of eigenvalues per atom                           :        -395.30479249 eV
  | Total energy (T->0) per atom                          :        -677.72052336 eV  <-- do not rely on this value for anything but (periodic) metals
  | Electronic free energy per atom                       :        -677.72052336 eV
  Initialize hartree_potential_storage
  Max. number of atoms included in rho_multipole:           13

  End scf initialization - timings             :  max(cpu_time)    wall_clock(cpu1)
  | Time for scf. initialization               :        1.147 s           1.149 s
  | Boundary condition initialization          :        0.000 s           0.000 s
  | Integration                                :        0.704 s           0.705 s
  | Solution of K.-S. eqns.                    :        0.004 s           0.004 s
  | Grid partitioning                          :        0.112 s           0.113 s
  | Preloading free-atom quantities on grid    :        0.002 s           0.002 s
  | Free-atom superposition energy             :        0.085 s           0.085 s
  | Total energy evaluation                    :        0.000 s           0.000 s

  Partial memory accounting:
  | Current value for overall tracked memory usage on task 0  :           0.165 MB
  | Peak value for overall tracked memory usage on task 0     :           0.678 MB after allocating wave
  | Largest tracked array allocation on task 0 so far         :           0.132 MB  when allocating H_times_psi
  Note:  These values currently only include a subset of arrays which are explicitly tracked.
  The "true" memory usage will be greater.
------------------------------------------------------------

------------------------------------------------------------
          Begin self-consistency iteration #    1

  Date     :  20200805, Time     :  182859.690
------------------------------------------------------------
  Evaluating new KS density.
  Integration grid: deviation in total charge (<rho> - N_e) =  -4.973799E-14
  Pulay mixing of updated and previous charge densities.

  Evaluating partitioned Hartree potential by multipole expansion.
  | Analytical far-field extrapolation by fixed multipoles:
  | Hartree multipole sum: apparent total charge =  -0.210334E-03
  Summing up the Hartree potential.
  Time summed over all CPUs for potential: real work        0.284 s, elapsed        0.284 s
  | RMS charge density error from multipole expansion :   0.590587E-02

  Integrating Hamiltonian matrix: batch-based integration.
  Time summed over all CPUs for integration: real work        0.494 s, elapsed        0.494 s

  Updating Kohn-Sham eigenvalues and eigenvectors using ELSI and the ELPA eigensolver.
  Finished Cholesky decomposition
  | Time :     0.000 s
  Finished transformation to standard eigenproblem
  | Time :     0.000 s
  Starting LAPACK eigensolver
  Finished solving standard eigenproblem
  | Time :     0.002 s
  Finished back-transformation of eigenvectors
  | Time :     0.000 s

  Obtaining occupation numbers and chemical potential using ELSI.
  | Chemical potential (Fermi level):    -7.59544129eV
  Writing Kohn-Sham eigenvalues.

  State    Occupation    Eigenvalue [Ha]    Eigenvalue [eV]
      1       2.00000         -18.908435         -514.52470
      2       2.00000         -18.838849         -512.63116
      3       2.00000         -14.094101         -383.52001
      4       2.00000         -10.115574         -275.25877
      5       2.00000         -10.061758         -273.79437
      6       2.00000         -10.028626         -272.89281
      7       2.00000          -1.140519          -31.03510
      8       2.00000          -1.031506          -28.06872
      9       2.00000          -0.920165          -25.03895
     10       2.00000          -0.793855          -21.60189
     11       2.00000          -0.710618          -19.33690
     12       2.00000          -0.631961          -17.19653
     13       2.00000          -0.561758          -15.28622
     14       2.00000          -0.541026          -14.72208
     15       2.00000          -0.528687          -14.38630
     16       2.00000          -0.515551          -14.02885
     17       2.00000          -0.488059          -13.28076
     18       2.00000          -0.470600          -12.80566
     19       2.00000          -0.448647          -12.20829
     20       2.00000          -0.442330          -12.03640
     21       2.00000          -0.428566          -11.66188
     22       2.00000          -0.368851          -10.03694
     23       2.00000          -0.332914           -9.05905
     24       2.00000          -0.313686           -8.53582
     25       0.00000          -0.111176           -3.02524
     26       0.00000          -0.031604           -0.85999
     27       0.00000           0.000322            0.00877
     28       0.00000           0.016582            0.45122
     29       0.00000           0.039517            1.07532
     30       0.00000           0.047593            1.29507
     31       0.00000           0.058378            1.58856
     32       0.00000           0.068448            1.86257
     33       0.00000           0.088370            2.40467
     34       0.00000           0.097017            2.63996
     35       0.00000           0.121033            3.29347
     36       0.00000           0.159884            4.35067
     37       0.00000           0.176404            4.80021
     38       0.00000           0.228537            6.21880
     39       0.00000           0.242124            6.58852
     40       0.00000           0.261899            7.12665
     41       0.00000           0.297131            8.08534
     42       0.00000           0.312891            8.51421
     43       0.00000           0.329068            8.95441
     44       0.00000           0.341118            9.28229
     45       0.00000           0.376566           10.24689
     46       0.00000           0.393883           10.71811
     47       0.00000           0.426545           11.60689
     48       0.00000           0.462617           12.58846
     49       0.00000           0.480278           13.06904
     50       0.00000           0.499656           13.59634
     51       0.00000           0.511730           13.92489
     52       0.00000           0.567866           15.45242
     53       0.00000           0.637068           17.33551

  Highest occupied state (VBM) at     -8.53582022 eV
  | Occupation number:      2.00000000

  Lowest unoccupied state (CBM) at    -3.02524433 eV
  | Occupation number:      0.00000000

  Overall HOMO-LUMO gap:      5.51057589 eV.

  Total energy components:
  | Sum of eigenvalues            :        -185.43328131 Ha       -5045.89631685 eV
  | XC energy correction          :         -42.11448136 Ha       -1145.99334539 eV
  | XC potential correction       :          54.14346316 Ha        1473.31859426 eV
  | Free-atom electrostatic energy:        -146.85213901 Ha       -3996.05001925 eV
  | Hartree energy correction     :          -3.33895181 Ha         -90.85750160 eV
  | vdW energy correction         :           0.00000000 Ha           0.00000000 eV
  | Entropy correction            :           0.00000000 Ha           0.00000000 eV
  | ---------------------------
  | Total energy                  :        -323.59539034 Ha       -8805.47858883 eV
  | Total energy, T -> 0          :        -323.59539034 Ha       -8805.47858883 eV  <-- do not rely on this value for anything but (periodic) metals
  | Electronic free energy        :        -323.59539034 Ha       -8805.47858883 eV

  Derived energy quantities:
  | Kinetic energy                :         322.26038350 Ha        8769.15120451 eV
  | Electrostatic energy          :        -603.74129247 Ha      -16428.63644795 eV
  | Energy correction for multipole
  | error in Hartree potential    :           0.01207025 Ha           0.32844815 eV
  | Sum of eigenvalues per atom                           :        -388.14587053 eV
  | Total energy (T->0) per atom                          :        -677.34450683 eV  <-- do not rely on this value for anything but (periodic) metals
  | Electronic free energy per atom                       :        -677.34450683 eV

  Self-consistency convergence accuracy:
  | Change of charge density      :  0.5802E+00
  | Change of sum of eigenvalues  :  0.9307E+02 eV
  | Change of total energy        :  0.4888E+01 eV

  End self-consistency iteration #     1       :  max(cpu_time)    wall_clock(cpu1)
  | Time for this iteration                    :        1.187 s           1.188 s
  | Charge density update                      :        0.392 s           0.392 s
  | Density mixing                             :        0.005 s           0.005 s
  | Hartree multipole update                   :        0.009 s           0.009 s
  | Hartree multipole summation                :        0.284 s           0.285 s
  | Integration                                :        0.494 s           0.495 s
  | Solution of K.-S. eqns.                    :        0.002 s           0.002 s
  | Total energy evaluation                    :        0.000 s           0.000 s

  Partial memory accounting:
  | Current value for overall tracked memory usage on task 0  :           0.165 MB
  | Peak value for overall tracked memory usage on task 0     :           0.695 MB after allocating gradient_basis_wave
  | Largest tracked array allocation on task 0 so far         :           0.397 MB  when allocating gradient_basis_wave
  Note:  These values currently only include a subset of arrays which are explicitly tracked.
  The "true" memory usage will be greater.
------------------------------------------------------------

------------------------------------------------------------
          Begin self-consistency iteration #    2

  Date     :  20200805, Time     :  182900.881
------------------------------------------------------------
  Evaluating new KS density.
  Integration grid: deviation in total charge (<rho> - N_e) =  -5.684342E-14
  Pulay mixing of updated and previous charge densities.

  Evaluating partitioned Hartree potential by multipole expansion.
  | Analytical far-field extrapolation by fixed multipoles:
  | Hartree multipole sum: apparent total charge =  -0.355759E-03
  Summing up the Hartree potential.
  Time summed over all CPUs for potential: real work        0.284 s, elapsed        0.284 s
  | RMS charge density error from multipole expansion :   0.141466E-01

  Integrating Hamiltonian matrix: batch-based integration.
  Time summed over all CPUs for integration: real work        0.500 s, elapsed        0.500 s

  Updating Kohn-Sham eigenvalues and eigenvectors using ELSI and the ELPA eigensolver.
  Finished Cholesky decomposition
  | Time :     0.000 s
  Finished transformation to standard eigenproblem
  | Time :     0.000 s
  Starting LAPACK eigensolver
  Finished solving standard eigenproblem
  | Time :     0.002 s
  Finished back-transformation of eigenvectors
  | Time :     0.000 s

  Obtaining occupation numbers and chemical potential using ELSI.
  | Chemical potential (Fermi level):    -6.36110187eV
  Highest occupied state (VBM) at     -6.45005685 eV
  | Occupation number:      2.00000000

  Lowest unoccupied state (CBM) at    -1.73891706 eV
  | Occupation number:      0.00000000

  Overall HOMO-LUMO gap:      4.71113979 eV.

  Checking to see if s.c.f. parameters should be adjusted.

  Total energy components:
  | Sum of eigenvalues            :        -181.81794133 Ha       -4947.51791066 eV
  | XC energy correction          :         -42.47700402 Ha       -1155.85808879 eV
  | XC potential correction       :          54.61340436 Ha        1486.10634497 eV
  | Free-atom electrostatic energy:        -146.85213901 Ha       -3996.05001925 eV
  | Hartree energy correction     :          -6.98471088 Ha        -190.06365345 eV
  | vdW energy correction         :           0.00000000 Ha           0.00000000 eV
  | Entropy correction            :          -0.00000000 Ha          -0.00000000 eV
  | ---------------------------
  | Total energy                  :        -323.51839088 Ha       -8803.38332717 eV
  | Total energy, T -> 0          :        -323.51839088 Ha       -8803.38332717 eV  <-- do not rely on this value for anything but (periodic) metals
  | Electronic free energy        :        -323.51839088 Ha       -8803.38332717 eV

  Derived energy quantities:
  | Kinetic energy                :         323.58781246 Ha        8805.27238426 eV
  | Electrostatic energy          :        -604.62919932 Ha      -16452.79762264 eV
  | Energy correction for multipole
  | error in Hartree potential    :           0.02696217 Ha           0.73367802 eV
  | Sum of eigenvalues per atom                           :        -380.57830082 eV
  | Total energy (T->0) per atom                          :        -677.18333286 eV  <-- do not rely on this value for anything but (periodic) metals
  | Electronic free energy per atom                       :        -677.18333286 eV

  Self-consistency convergence accuracy:
  | Change of charge density      :  0.3621E+00
  | Change of sum of eigenvalues  :  0.9838E+02 eV
  | Change of total energy        :  0.2095E+01 eV

  End self-consistency iteration #     2       :  max(cpu_time)    wall_clock(cpu1)
  | Time for this iteration                    :        1.180 s           1.188 s
  | Charge density update                      :        0.384 s           0.385 s
  | Density mixing                             :        0.007 s           0.007 s
  | Hartree multipole update                   :        0.009 s           0.009 s
  | Hartree multipole summation                :        0.284 s           0.284 s
  | Integration                                :        0.494 s           0.500 s
  | Solution of K.-S. eqns.                    :        0.002 s           0.003 s
  | Total energy evaluation                    :        0.000 s           0.000 s

  Partial memory accounting:
  | Current value for overall tracked memory usage on task 0  :           0.166 MB
  | Peak value for overall tracked memory usage on task 0     :           0.695 MB after allocating gradient_basis_wave
  | Largest tracked array allocation on task 0 so far         :           0.397 MB  when allocating gradient_basis_wave
  Note:  These values currently only include a subset of arrays which are explicitly tracked.
  The "true" memory usage will be greater.
------------------------------------------------------------

------------------------------------------------------------
          Begin self-consistency iteration #    3

  Date     :  20200805, Time     :  182902.071
------------------------------------------------------------
  Evaluating new KS density.
  Integration grid: deviation in total charge (<rho> - N_e) =   3.552714E-14
  Pulay mixing of updated and previous charge densities.

  Evaluating partitioned Hartree potential by multipole expansion.
  | Analytical far-field extrapolation by fixed multipoles:
  | Hartree multipole sum: apparent total charge =  -0.459279E-03
  Summing up the Hartree potential.
  Time summed over all CPUs for potential: real work        0.283 s, elapsed        0.283 s
  | RMS charge density error from multipole expansion :   0.226068E-01

  Integrating Hamiltonian matrix: batch-based integration.
  Time summed over all CPUs for integration: real work        0.493 s, elapsed        0.493 s

  Updating Kohn-Sham eigenvalues and eigenvectors using ELSI and the ELPA eigensolver.
  Finished Cholesky decomposition
  | Time :     0.000 s
  Finished transformation to standard eigenproblem
  | Time :     0.000 s
  Starting LAPACK eigensolver
  Finished solving standard eigenproblem
  | Time :     0.002 s
  Finished back-transformation of eigenvectors
  | Time :     0.000 s

  Obtaining occupation numbers and chemical potential using ELSI.
  | Chemical potential (Fermi level):    -5.72907417eV
  Highest occupied state (VBM) at     -5.79547277 eV
  | Occupation number:      2.00000000

  Lowest unoccupied state (CBM) at    -1.03561344 eV
  | Occupation number:      0.00000000

  Overall HOMO-LUMO gap:      4.75985933 eV.

  Total energy components:
  | Sum of eigenvalues            :        -180.56191605 Ha       -4913.33972358 eV
  | XC energy correction          :         -42.62578630 Ha       -1159.90666073 eV
  | XC potential correction       :          54.80286197 Ha        1491.26174878 eV
  | Free-atom electrostatic energy:        -146.85213901 Ha       -3996.05001925 eV
  | Hartree energy correction     :          -8.26932214 Ha        -225.01970428 eV
  | vdW energy correction         :           0.00000000 Ha           0.00000000 eV
  | Entropy correction            :          -0.00000000 Ha          -0.00000000 eV
  | ---------------------------
  | Total energy                  :        -323.50630153 Ha       -8803.05435907 eV
  | Total energy, T -> 0          :        -323.50630153 Ha       -8803.05435907 eV  <-- do not rely on this value for anything but (periodic) metals
  | Electronic free energy        :        -323.50630153 Ha       -8803.05435907 eV

  Derived energy quantities:
  | Kinetic energy                :         323.11354624 Ha        8792.36694383 eV
  | Electrostatic energy          :        -603.99406146 Ha      -16435.51464217 eV
  | Energy correction for multipole
  | error in Hartree potential    :           0.03884138 Ha           1.05692785 eV
  | Sum of eigenvalues per atom                           :        -377.94920951 eV
  | Total energy (T->0) per atom                          :        -677.15802762 eV  <-- do not rely on this value for anything but (periodic) metals
  | Electronic free energy per atom                       :        -677.15802762 eV

  Self-consistency convergence accuracy:
  | Change of charge density      :  0.2008E+00
  | Change of sum of eigenvalues  :  0.3418E+02 eV
  | Change of total energy        :  0.3290E+00 eV

  End self-consistency iteration #     3       :  max(cpu_time)    wall_clock(cpu1)
  | Time for this iteration                    :        1.181 s           1.183 s
  | Charge density update                      :        0.385 s           0.385 s
  | Density mixing                             :        0.009 s           0.009 s
  | Hartree multipole update                   :        0.009 s           0.009 s
  | Hartree multipole summation                :        0.283 s           0.284 s
  | Integration                                :        0.493 s           0.493 s
  | Solution of K.-S. eqns.                    :        0.002 s           0.002 s
  | Total energy evaluation                    :        0.000 s           0.000 s

  Partial memory accounting:
  | Current value for overall tracked memory usage on task 0  :           0.166 MB
  | Peak value for overall tracked memory usage on task 0     :           0.695 MB after allocating gradient_basis_wave
  | Largest tracked array allocation on task 0 so far         :           0.397 MB  when allocating gradient_basis_wave
  Note:  These values currently only include a subset of arrays which are explicitly tracked.
  The "true" memory usage will be greater.
------------------------------------------------------------

------------------------------------------------------------
          Begin self-consistency iteration #    4

  Date     :  20200805, Time     :  182903.256
------------------------------------------------------------
  Evaluating new KS density.
  Integration grid: deviation in total charge (<rho> - N_e) =   1.421085E-14
  Pulay mixing of updated and previous charge densities.

  Evaluating partitioned Hartree potential by multipole expansion.
  | Analytical far-field extrapolation by fixed multipoles:
  | Hartree multipole sum: apparent total charge =  -0.490827E-03
  Summing up the Hartree potential.
  Time summed over all CPUs for potential: real work        0.283 s, elapsed        0.283 s
  | RMS charge density error from multipole expansion :   0.258051E-01

  Integrating Hamiltonian matrix: batch-based integration.
  Time summed over all CPUs for integration: real work        0.493 s, elapsed        0.493 s

  Updating Kohn-Sham eigenvalues and eigenvectors using ELSI and the ELPA eigensolver.
  Finished Cholesky decomposition
  | Time :     0.000 s
  Finished transformation to standard eigenproblem
  | Time :     0.000 s
  Starting LAPACK eigensolver
  Finished solving standard eigenproblem
  | Time :     0.002 s
  Finished back-transformation of eigenvectors
  | Time :     0.000 s

  Obtaining occupation numbers and chemical potential using ELSI.
  | Chemical potential (Fermi level):    -1.49172019eV
  Highest occupied state (VBM) at     -5.61676869 eV
  | Occupation number:      2.00000000

  Lowest unoccupied state (CBM) at    -0.96417078 eV
  | Occupation number:      0.00000000

  Overall HOMO-LUMO gap:      4.65259791 eV.

  Total energy components:
  | Sum of eigenvalues            :        -180.40618678 Ha       -4909.10211469 eV
  | XC energy correction          :         -42.66256128 Ha       -1160.90735878 eV
  | XC potential correction       :          54.84928679 Ha        1492.52503250 eV
  | Free-atom electrostatic energy:        -146.85213901 Ha       -3996.05001925 eV
  | Hartree energy correction     :          -8.43400329 Ha        -229.50090645 eV
  | vdW energy correction         :           0.00000000 Ha           0.00000000 eV
  | Entropy correction            :           0.00000000 Ha           0.00000000 eV
  | ---------------------------
  | Total energy                  :        -323.50560357 Ha       -8803.03536667 eV
  | Total energy, T -> 0          :        -323.50560357 Ha       -8803.03536667 eV  <-- do not rely on this value for anything but (periodic) metals
  | Electronic free energy        :        -323.50560357 Ha       -8803.03536667 eV

  Derived energy quantities:
  | Kinetic energy                :         322.78092366 Ha        8783.31582289 eV
  | Electrostatic energy          :        -603.62396595 Ha      -16425.44383078 eV
  | Energy correction for multipole
  | error in Hartree potential    :           0.04293923 Ha           1.16843589 eV
  | Sum of eigenvalues per atom                           :        -377.62323959 eV
  | Total energy (T->0) per atom                          :        -677.15656667 eV  <-- do not rely on this value for anything but (periodic) metals
  | Electronic free energy per atom                       :        -677.15656667 eV

  Self-consistency convergence accuracy:
  | Change of charge density      :  0.5824E-01
  | Change of sum of eigenvalues  :  0.4238E+01 eV
  | Change of total energy        :  0.1899E-01 eV

  End self-consistency iteration #     4       :  max(cpu_time)    wall_clock(cpu1)
  | Time for this iteration                    :        1.180 s           1.182 s
  | Charge density update                      :        0.383 s           0.384 s
  | Density mixing                             :        0.010 s           0.010 s
  | Hartree multipole update                   :        0.009 s           0.009 s
  | Hartree multipole summation                :        0.283 s           0.283 s
  | Integration                                :        0.493 s           0.493 s
  | Solution of K.-S. eqns.                    :        0.002 s           0.002 s
  | Total energy evaluation                    :        0.000 s           0.000 s

  Partial memory accounting:
  | Current value for overall tracked memory usage on task 0  :           0.166 MB
  | Peak value for overall tracked memory usage on task 0     :           0.696 MB after allocating gradient_basis_wave
  | Largest tracked array allocation on task 0 so far         :           0.397 MB  when allocating gradient_basis_wave
  Note:  These values currently only include a subset of arrays which are explicitly tracked.
  The "true" memory usage will be greater.
------------------------------------------------------------

------------------------------------------------------------
          Begin self-consistency iteration #    5

  Date     :  20200805, Time     :  182904.440
------------------------------------------------------------
  Evaluating new KS density.
  Integration grid: deviation in total charge (<rho> - N_e) =  -7.105427E-15
  Pulay mixing of updated and previous charge densities.

  Evaluating partitioned Hartree potential by multipole expansion.
  | Analytical far-field extrapolation by fixed multipoles:
  | Hartree multipole sum: apparent total charge =  -0.484764E-03
  Summing up the Hartree potential.
  Time summed over all CPUs for potential: real work        0.283 s, elapsed        0.283 s
  | RMS charge density error from multipole expansion :   0.255582E-01

  Integrating Hamiltonian matrix: batch-based integration.
  Time summed over all CPUs for integration: real work        0.493 s, elapsed        0.493 s

  Updating Kohn-Sham eigenvalues and eigenvectors using ELSI and the ELPA eigensolver.
  Finished Cholesky decomposition
  | Time :     0.000 s
  Finished transformation to standard eigenproblem
  | Time :     0.000 s
  Starting LAPACK eigensolver
  Finished solving standard eigenproblem
  | Time :     0.002 s
  Finished back-transformation of eigenvectors
  | Time :     0.000 s

  Obtaining occupation numbers and chemical potential using ELSI.
  | Chemical potential (Fermi level):    -1.54035348eV
  Highest occupied state (VBM) at     -5.68809372 eV
  | Occupation number:      2.00000000

  Lowest unoccupied state (CBM) at    -1.04064387 eV
  | Occupation number:      0.00000000

  Overall HOMO-LUMO gap:      4.64744984 eV.

  Total energy components:
  | Sum of eigenvalues            :        -180.58057470 Ha       -4913.84745152 eV
  | XC energy correction          :         -42.64109248 Ha       -1160.32316290 eV
  | XC potential correction       :          54.82144556 Ha        1491.76743396 eV
  | Free-atom electrostatic energy:        -146.85213901 Ha       -3996.05001925 eV
  | Hartree energy correction     :          -8.25294313 Ha        -224.57400886 eV
  | vdW energy correction         :           0.00000000 Ha           0.00000000 eV
  | Entropy correction            :           0.00000000 Ha           0.00000000 eV
  | ---------------------------
  | Total energy                  :        -323.50530377 Ha       -8803.02720857 eV
  | Total energy, T -> 0          :        -323.50530377 Ha       -8803.02720857 eV  <-- do not rely on this value for anything but (periodic) metals
  | Electronic free energy        :        -323.50530377 Ha       -8803.02720857 eV

  Derived energy quantities:
  | Kinetic energy                :         322.68659515 Ha        8780.74901364 eV
  | Electrostatic energy          :        -603.55080644 Ha      -16423.45305931 eV
  | Energy correction for multipole
  | error in Hartree potential    :           0.04235521 Ha           1.15254395 eV
  | Sum of eigenvalues per atom                           :        -377.98826550 eV
  | Total energy (T->0) per atom                          :        -677.15593912 eV  <-- do not rely on this value for anything but (periodic) metals
  | Electronic free energy per atom                       :        -677.15593912 eV

  Self-consistency convergence accuracy:
  | Change of charge density      :  0.2092E-01
  | Change of sum of eigenvalues  : -0.4745E+01 eV
  | Change of total energy        :  0.8158E-02 eV

  End self-consistency iteration #     5       :  max(cpu_time)    wall_clock(cpu1)
  | Time for this iteration                    :        1.183 s           1.184 s
  | Charge density update                      :        0.384 s           0.385 s
  | Density mixing                             :        0.011 s           0.011 s
  | Hartree multipole update                   :        0.009 s           0.009 s
  | Hartree multipole summation                :        0.283 s           0.283 s
  | Integration                                :        0.493 s           0.493 s
  | Solution of K.-S. eqns.                    :        0.002 s           0.003 s
  | Total energy evaluation                    :        0.000 s           0.000 s

  Partial memory accounting:
  | Current value for overall tracked memory usage on task 0  :           0.166 MB
  | Peak value for overall tracked memory usage on task 0     :           0.696 MB after allocating gradient_basis_wave
  | Largest tracked array allocation on task 0 so far         :           0.397 MB  when allocating gradient_basis_wave
  Note:  These values currently only include a subset of arrays which are explicitly tracked.
  The "true" memory usage will be greater.
------------------------------------------------------------

------------------------------------------------------------
          Begin self-consistency iteration #    6

  Date     :  20200805, Time     :  182905.626
------------------------------------------------------------
  Evaluating new KS density.
  Integration grid: deviation in total charge (<rho> - N_e) =   2.842171E-14
  Pulay mixing of updated and previous charge densities.

  Evaluating partitioned Hartree potential by multipole expansion.
  | Analytical far-field extrapolation by fixed multipoles:
  | Hartree multipole sum: apparent total charge =  -0.486630E-03
  Summing up the Hartree potential.
  Time summed over all CPUs for potential: real work        0.284 s, elapsed        0.284 s
  | RMS charge density error from multipole expansion :   0.259068E-01

  Integrating Hamiltonian matrix: batch-based integration.
  Time summed over all CPUs for integration: real work        0.493 s, elapsed        0.493 s

  Updating Kohn-Sham eigenvalues and eigenvectors using ELSI and the ELPA eigensolver.
  Finished Cholesky decomposition
  | Time :     0.000 s
  Finished transformation to standard eigenproblem
  | Time :     0.000 s
  Starting LAPACK eigensolver
  Finished solving standard eigenproblem
  | Time :     0.001 s
  Finished back-transformation of eigenvectors
  | Time :     0.000 s

  Obtaining occupation numbers and chemical potential using ELSI.
  | Chemical potential (Fermi level):    -1.54683407eV
  Highest occupied state (VBM) at     -5.66942751 eV
  | Occupation number:      2.00000000

  Lowest unoccupied state (CBM) at    -1.06979573 eV
  | Occupation number:      0.00000000

  Overall HOMO-LUMO gap:      4.59963178 eV.

  Total energy components:
  | Sum of eigenvalues            :        -180.61994740 Ha       -4914.91883704 eV
  | XC energy correction          :         -42.63500474 Ha       -1160.15750715 eV
  | XC potential correction       :          54.81353694 Ha        1491.55222941 eV
  | Free-atom electrostatic energy:        -146.85213901 Ha       -3996.05001925 eV
  | Hartree energy correction     :          -8.21168408 Ha        -223.45129303 eV
  | vdW energy correction         :           0.00000000 Ha           0.00000000 eV
  | Entropy correction            :           0.00000000 Ha           0.00000000 eV
  | ---------------------------
  | Total energy                  :        -323.50523830 Ha       -8803.02542707 eV
  | Total energy, T -> 0          :        -323.50523830 Ha       -8803.02542707 eV  <-- do not rely on this value for anything but (periodic) metals
  | Electronic free energy        :        -323.50523830 Ha       -8803.02542707 eV

  Derived energy quantities:
  | Kinetic energy                :         322.59117791 Ha        8778.15257839 eV
  | Electrostatic energy          :        -603.46141147 Ha      -16421.02049830 eV
  | Energy correction for multipole
  | error in Hartree potential    :           0.04259340 Ha           1.15902538 eV
  | Sum of eigenvalues per atom                           :        -378.07067977 eV
  | Total energy (T->0) per atom                          :        -677.15580208 eV  <-- do not rely on this value for anything but (periodic) metals
  | Electronic free energy per atom                       :        -677.15580208 eV

  Self-consistency convergence accuracy:
  | Change of charge density      :  0.1060E-01
  | Change of sum of eigenvalues  : -0.1071E+01 eV
  | Change of total energy        :  0.1782E-02 eV

  End self-consistency iteration #     6       :  max(cpu_time)    wall_clock(cpu1)
  | Time for this iteration                    :        1.184 s           1.186 s
  | Charge density update                      :        0.383 s           0.384 s
  | Density mixing                             :        0.012 s           0.013 s
  | Hartree multipole update                   :        0.009 s           0.008 s
  | Hartree multipole summation                :        0.284 s           0.285 s
  | Integration                                :        0.493 s           0.493 s
  | Solution of K.-S. eqns.                    :        0.002 s           0.002 s
  | Total energy evaluation                    :        0.000 s           0.000 s

  Partial memory accounting:
  | Current value for overall tracked memory usage on task 0  :           0.166 MB
  | Peak value for overall tracked memory usage on task 0     :           0.696 MB after allocating gradient_basis_wave
  | Largest tracked array allocation on task 0 so far         :           0.397 MB  when allocating gradient_basis_wave
  Note:  These values currently only include a subset of arrays which are explicitly tracked.
  The "true" memory usage will be greater.
------------------------------------------------------------

------------------------------------------------------------
          Begin self-consistency iteration #    7

  Date     :  20200805, Time     :  182906.814
------------------------------------------------------------
  Evaluating new KS density.
  Integration grid: deviation in total charge (<rho> - N_e) =  -1.421085E-14
  Pulay mixing of updated and previous charge densities.

  Evaluating partitioned Hartree potential by multipole expansion.
  | Analytical far-field extrapolation by fixed multipoles:
  | Hartree multipole sum: apparent total charge =  -0.488054E-03
  Summing up the Hartree potential.
  Time summed over all CPUs for potential: real work        0.283 s, elapsed        0.283 s
  | RMS charge density error from multipole expansion :   0.260748E-01

  Integrating Hamiltonian matrix: batch-based integration.
  Time summed over all CPUs for integration: real work        0.503 s, elapsed        0.503 s

  Updating Kohn-Sham eigenvalues and eigenvectors using ELSI and the ELPA eigensolver.
  Finished Cholesky decomposition
  | Time :     0.000 s
  Finished transformation to standard eigenproblem
  | Time :     0.000 s
  Starting LAPACK eigensolver
  Finished solving standard eigenproblem
  | Time :     0.002 s
  Finished back-transformation of eigenvectors
  | Time :     0.000 s

[...]
  |   Hirshfeld dipole moment :      0.06455295
  |   Hirshfeld second moments:      0.00677432      -0.01564085      -0.01464091
  |                                 -0.01564085      -0.00644602       0.00758246
  |                                 -0.01464091       0.00758246      -0.02020826
  ----------------------------------------------------------------------
  | Atom    12: O
  |   Hirshfeld charge        :     -0.13282358
  |   Free atom volume        :     23.61338643
  |   Hirshfeld volume        :     20.60599724
  |   Hirshfeld dipole vector :      0.01651342       0.00139955       0.03226086
  |   Hirshfeld dipole moment :      0.03626865
  |   Hirshfeld second moments:      0.06008410       0.01226022      -0.02088333
  |                                  0.01226022       0.09525297      -0.01423992
  |                                 -0.02088333      -0.01423992       0.04660491
  ----------------------------------------------------------------------
  | Atom    13: H
  |   Hirshfeld charge        :      0.17102870
  |   Free atom volume        :      9.95071624
  |   Hirshfeld volume        :      6.38042771
  |   Hirshfeld dipole vector :     -0.02575582      -0.09651651       0.05070735
  |   Hirshfeld dipole moment :      0.11202694
  |   Hirshfeld second moments:      0.11552449       0.00100913      -0.01557521
  |                                  0.00100913       0.12259264      -0.00037656
  |                                 -0.01557521      -0.00037656       0.08328493
  ----------------------------------------------------------------------


  Total energy components:
  | Sum of eigenvalues            :        -180.60818879 Ha       -4914.59886912 eV
  | XC energy correction          :         -42.63305146 Ha       -1160.10435560 eV
  | XC potential correction       :          54.81108349 Ha        1491.48546782 eV
  | Free-atom electrostatic energy:        -146.85213901 Ha       -3996.05001925 eV
  | Hartree energy correction     :          -8.22292491 Ha        -223.75717149 eV
  | vdW energy correction         :          -0.00309260 Ha          -0.08415383 eV
  | Entropy correction            :           0.00000000 Ha           0.00000000 eV
  | ---------------------------
  | Total energy                  :        -323.50831328 Ha       -8803.10910148 eV
  | Total energy, T -> 0          :        -323.50831328 Ha       -8803.10910148 eV  <-- do not rely on this value for anything but (periodic) metals
  | Electronic free energy        :        -323.50831328 Ha       -8803.10910148 eV

  Derived energy quantities:
  | Kinetic energy                :         322.55256794 Ha        8777.10194761 eV
  | Electrostatic energy          :        -603.42473716 Ha      -16420.02253966 eV
  | Energy correction for multipole
  | error in Hartree potential    :           0.04273055 Ha           1.16275746 eV
  | Sum of eigenvalues per atom                           :        -378.04606686 eV
  | Total energy (T->0) per atom                          :        -677.16223858 eV  <-- do not rely on this value for anything but (periodic) metals
  | Electronic free energy per atom                       :        -677.16223858 eV

  atomic forces [eV/Ang]:
  -----------------------
  atom #    1
   Hellmann-Feynman              :  0.912352E+00  0.196508E+00  0.630334E+00
   Ionic forces                  :  0.000000E+00  0.000000E+00  0.000000E+00
   Multipole                     :  0.220922E+00  0.338154E+00 -0.332978E+00
   Pulay + GGA                   : -0.146718E+01 -0.488408E+00 -0.943404E+00
   Van der Waals                 :  0.147011E-02  0.529121E-03 -0.130129E-02
   ----------------------------------------------------------------
   Total forces(   1)            : -0.332439E+00  0.467833E-01 -0.647349E+00
  atom #    2
   Hellmann-Feynman              :  0.442981E+00 -0.699992E-01  0.423335E+00
   Ionic forces                  :  0.000000E+00  0.000000E+00  0.000000E+00
   Multipole                     :  0.147324E+00  0.234876E-01 -0.436355E-01
   Pulay + GGA                   : -0.116910E+00  0.861441E-02  0.615526E-02
   Van der Waals                 :  0.873127E-02 -0.364898E-02 -0.122777E-02
   ----------------------------------------------------------------
   Total forces(   2)            :  0.482126E+00 -0.415462E-01  0.384627E+00
  atom #    3
   Hellmann-Feynman              : -0.121677E+02  0.252970E+01  0.822342E+00
   Ionic forces                  :  0.000000E+00  0.000000E+00  0.000000E+00
   Multipole                     : -0.810685E-01  0.144000E+00 -0.918806E+00
   Pulay + GGA                   :  0.119283E+02 -0.265220E+01  0.898470E+00
   Van der Waals                 :  0.293443E-02 -0.760528E-02 -0.642264E-02
   ----------------------------------------------------------------
   Total forces(   3)            : -0.317536E+00  0.138960E-01  0.795583E+00
  atom #    4
   Hellmann-Feynman              :  0.170595E+00 -0.640655E-01 -0.911423E-01
   Ionic forces                  :  0.000000E+00  0.000000E+00  0.000000E+00
   Multipole                     :  0.385919E-01  0.113127E-01 -0.994771E-01
   Pulay + GGA                   : -0.172999E+00 -0.981960E-01  0.967487E-01
   Van der Waals                 : -0.222278E-02 -0.617557E-02 -0.499753E-02
   ----------------------------------------------------------------
   Total forces(   4)            :  0.339654E-01 -0.157124E+00 -0.988683E-01
  atom #    5
   Hellmann-Feynman              :  0.230076E+00 -0.102544E+00 -0.285237E+00
   Ionic forces                  :  0.000000E+00  0.000000E+00  0.000000E+00
   Multipole                     :  0.206930E-01 -0.597048E-01 -0.999043E-01
   Pulay + GGA                   : -0.138840E+00  0.173518E+00  0.821228E-01
   Van der Waals                 : -0.310395E-02  0.243119E-02 -0.228372E-03
   ----------------------------------------------------------------
   Total forces(   5)            :  0.108825E+00  0.137009E-01 -0.303247E+00
  atom #    6
   Hellmann-Feynman              : -0.273318E+00 -0.723529E+00  0.494755E+00
   Ionic forces                  :  0.000000E+00  0.000000E+00  0.000000E+00
   Multipole                     : -0.123075E+00  0.700601E+00  0.247263E+00
   Pulay + GGA                   :  0.463765E+00 -0.425534E+00 -0.649249E+00
   Van der Waals                 : -0.450151E-02  0.488221E-02  0.130873E-02
   ----------------------------------------------------------------
   Total forces(   6)            :  0.628712E-01 -0.443580E+00  0.940767E-01
  atom #    7
   Hellmann-Feynman              : -0.188349E+00 -0.391651E-01 -0.691081E-01
   Ionic forces                  :  0.000000E+00  0.000000E+00  0.000000E+00
   Multipole                     : -0.124038E+00  0.480239E-01  0.315922E-01
   Pulay + GGA                   :  0.118572E+00 -0.131938E-01 -0.359787E-01
   Van der Waals                 : -0.655345E-03  0.169922E-02  0.253470E-02
   ----------------------------------------------------------------
   Total forces(   7)            : -0.194471E+00 -0.263570E-02 -0.709599E-01
  atom #    8
   Hellmann-Feynman              :  0.126583E+00 -0.320460E-01  0.124734E+00
   Ionic forces                  :  0.000000E+00  0.000000E+00  0.000000E+00
   Multipole                     :  0.120345E-01  0.633600E-01  0.125849E+00
   Pulay + GGA                   : -0.423585E-01 -0.360791E-01 -0.897053E-01
   Van der Waals                 : -0.249338E-02  0.114624E-01  0.137318E-02
   ----------------------------------------------------------------
   Total forces(   8)            :  0.937659E-01  0.669730E-02  0.162251E+00
  atom #    9
   Hellmann-Feynman              :  0.120921E+00  0.497410E-01 -0.195935E+00
   Ionic forces                  :  0.000000E+00  0.000000E+00  0.000000E+00
   Multipole                     :  0.163129E-01  0.128320E+00 -0.651206E-02
   Pulay + GGA                   : -0.546174E-01 -0.715149E-01  0.660131E-01
   Van der Waals                 : -0.222378E-02  0.625519E-02  0.761396E-02
   ----------------------------------------------------------------
   Total forces(   9)            :  0.803930E-01  0.112801E+00 -0.128820E+00
  atom #   10
   Hellmann-Feynman              :  0.243358E+01  0.533557E+01  0.174219E+00
   Ionic forces                  :  0.000000E+00  0.000000E+00  0.000000E+00
   Multipole                     :  0.282538E-01 -0.240203E+00  0.256116E+00
   Pulay + GGA                   : -0.154295E+01 -0.284166E+01 -0.158052E+00
   Van der Waals                 :  0.313352E-02 -0.103247E-01 -0.105939E-02
   ----------------------------------------------------------------
   Total forces(  10)            :  0.922021E+00  0.224338E+01  0.271223E+00
  atom #   11
   Hellmann-Feynman              :  0.410756E+01 -0.251721E+01  0.143096E+02
   Ionic forces                  :  0.000000E+00  0.000000E+00  0.000000E+00
   Multipole                     :  0.162908E+00 -0.510772E+00  0.801099E+00
   Pulay + GGA                   : -0.337359E+01  0.344989E+01 -0.135098E+02
   Van der Waals                 : -0.311421E-02 -0.120032E-01  0.130617E-02
   ----------------------------------------------------------------
   Total forces(  11)            :  0.893761E+00  0.409906E+00  0.160229E+01
  atom #   12
   Hellmann-Feynman              : -0.555009E+01  0.798610E+00 -0.151695E+02
   Ionic forces                  :  0.000000E+00  0.000000E+00  0.000000E+00
   Multipole                     : -0.902009E+00 -0.995599E+00 -0.841429E+00
   Pulay + GGA                   :  0.507786E+01 -0.116587E+01  0.138941E+02
   Van der Waals                 :  0.211224E-03  0.591571E-02  0.518448E-02
   ----------------------------------------------------------------
   Total forces(  12)            : -0.137402E+01 -0.135695E+01 -0.211158E+01
  atom #   13
   Hellmann-Feynman              : -0.518764E+00 -0.107240E+01  0.173694E+00
   Ionic forces                  :  0.000000E+00  0.000000E+00  0.000000E+00
   Multipole                     :  0.167250E-01 -0.553370E-01  0.912362E-01
   Pulay + GGA                   :  0.404061E-01  0.272140E+00 -0.210651E+00
   Van der Waals                 :  0.183439E-02  0.658273E-02 -0.408423E-02
   ----------------------------------------------------------------
   Total forces(  13)            : -0.459799E+00 -0.849019E+00  0.501945E-01

  Timings for VdW correction (Tkatchenko-Scheffler 2009 or later):
  | CPU time:        0.089 s, Wall clock time:        0.090 s.
  Removing unitary transformations (pure translations, rotations) from forces on atoms.
  Atomic forces before filtering:
  | Net force on center of mass :  -0.539857E-03 -0.368501E-02 -0.576069E-03 eV/A
  | Net torque on center of mass:  -0.731079E-02  0.566874E-02  0.367811E-03 eV
  Atomic forces after filtering:
  | Net force on center of mass :   0.178406E-15  0.178406E-15 -0.122654E-15 eV/A
  | Net torque on center of mass:   0.207699E-14  0.885079E-16 -0.188817E-15 eV

  Energy and forces in a compact form:
  | Total energy uncorrected      :         -0.880310910147718E+04 eV
  | Total energy corrected        :         -0.880310910147718E+04 eV  <-- do not rely on this value for anything but (periodic) metals
  | Electronic free energy        :         -0.880310910147718E+04 eV
  Total atomic forces (unitary forces cleaned) [eV/Ang]:
  |   1         -0.332365397204647E+00          0.470825356384689E-01         -0.647197238087027E+00
  |   2          0.482199734528826E+00         -0.412593130699639E-01          0.385028319671810E+00
  |   3         -0.317139919985344E+00          0.144109077769544E-01          0.795626171519378E+00
  |   4          0.344897431864892E-01         -0.156536805095800E+00         -0.986000010114179E-01
  |   5          0.109298836247970E+00          0.142723350120714E-01         -0.303312795067641E+00
  |   6          0.627930307568964E-01         -0.443384190216169E+00          0.943037199402498E-01
  |   7         -0.194552420287083E+00         -0.242940468551545E-02         -0.709778469036585E-01
  |   8          0.934528483558005E-01          0.673604306327108E-02          0.162562351661901E+00
  |   9          0.804401487821133E-01          0.113068249720943E+00         -0.128376910640284E+00
  |  10          0.921910613702033E+00          0.224357654478738E+01          0.271093634424184E+00
  |  11          0.893388024534620E+00          0.409925546380047E+00          0.160218808990784E+01
  |  12         -0.137398930073573E+01         -0.135664528698400E+01         -0.211199630815020E+01
  |  13         -0.459925941881943E+00         -0.848817162327687E+00          0.496588127348652E-01

  ------------------------------------ 
  Start decomposition of the XC Energy 
  ------------------------------------ 
  X and C from original XC functional choice 
  Hartree-Fock Energy :          0.000000000 Ha              0.000000000 eV
  X Energy            :        -41.033573830 Ha          -1116.580354909 eV
  C Energy            :         -1.599477626 Ha            -43.524000688 eV
  Total XC Energy     :        -42.633051457 Ha          -1160.104355597 eV
  ------------------------------------ 
  LDA X and C from self-consistent density 
  X Energy LDA        :        -37.251468444 Ha          -1013.664031029 eV
  C Energy LDA        :         -3.138160548 Ha            -85.393693301 eV
  ------------------------------------ 
  End decomposition of the XC Energy 
  ------------------------------------ 

------------------------------------------------------------

------------------------------------------------------------------------------
  Final output of selected total energy values:

  The following output summarizes some interesting total energy values
  at the end of a run (AFTER all relaxation, molecular dynamics, etc.).

  | Total energy of the DFT / Hartree-Fock s.c.f. calculation      :          -8803.109101477 eV
  | Final zero-broadening corrected energy (caution - metals only) :          -8803.109101477 eV
  | For reference only, the value of 1 Hartree used in FHI-aims is :             27.211384500 eV

  Before relying on these values, please be sure to understand exactly which
  total energy value is referred to by a given number. Different objects may
  all carry the same name 'total energy'. Definitions:

  Total energy of the DFT / Hartree-Fock s.c.f. calculation:
  | Note that this energy does not include ANY quantities calculated after the
  | s.c.f. cycle, in particular not ANY RPA, MP2, etc. many-body perturbation terms.

  Final zero-broadening corrected energy:
  | For metallic systems only, a broadening of the occupation numbers at the Fermi
  | level can be extrapolated back to zero broadening by an electron-gas inspired
  | formula. For all systems that are not real metals, this value can be
  | meaningless and should be avoided.

------------------------------------------------------------------------------
  Methods described in the following list of references were used in this FHI-aims run.
  If you publish the results, please make sure to cite these reference if they apply.
  FHI-aims is an academic code, and for our developers (often, Ph.D. students
  and postdocs), scientific credit in the community is essential.
  Thank you for helping us!

  For any use of FHI-aims, please cite:

    Volker Blum, Ralf Gehrke, Felix Hanke, Paula Havu, Ville Havu,
    Xinguo Ren, Karsten Reuter, and Matthias Scheffler
    'Ab initio molecular simulations with numeric atom-centered orbitals'
    Computer Physics Communications 180, 2175-2196 (2009)
    http://dx.doi.org/10.1016/j.cpc.2009.06.022


  The scalable eigensolver library ELPA was used in your run.
  ELPA is essential especially for large systems on hundreds or thousands of CPUs.
  For ELPA, please cite:

    Andreas Marek, Volker Blum, Rainer Johanni, Ville Havu, Bruno Lang,
    Thomas Auckenthaler, Alexander Heinecke, Hans-Joachim Bungartz, and Hermann Lederer,
    'The ELPA Library - Scalable Parallel Eigenvalue Solutions
    for Electronic Structure Theory and Computational Science'
    The Journal of Physics: Condensed Matter 26, 213201 (2014).
    http://dx.doi.org/10.1088/0953-8984/26/21/213201


  The ELSI infrastructure was used in your run to solve the Kohn-Sham electronic structure.
  Please check out http://elsi-interchange.org to learn more.
  If scalability is important for your project, please acknowledge ELSI by citing:

    V. W-z. Yu, F. Corsetti, A. Garcia, W. P. Huhn, M. Jacquelin, W. Jia,
    B. Lange, L. Lin, J. Lu, W. Mi, A. Seifitokaldani, A. Vazquez-Mayagoitia,
    C. Yang, H. Yang, and V. Blum
    'ELSI: A unified software interface for Kohn-Sham electronic structure solvers'
    Computer Physics Communications 222, 267-285 (2018).
    http://dx.doi.org/10.1016/j.cpc.2017.09.007


  For the real-space grid partitioning and parallelization used in this calculation, please cite:

    Ville Havu, Volker Blum, Paula Havu, and Matthias Scheffler,
    'Efficient O(N) integration for all-electron electronic structure calculation'
    'using numerically tabulated basis functions'
    Journal of Computational Physics 228, 8367-8379 (2009).
    http://dx.doi.org/10.1016/j.jcp.2009.08.008

  Of course, there are many other important community references, e.g., those cited in the
  above references. Our list is limited to references that describe implementations in the
  FHI-aims code. The reason is purely practical (length of this list) - please credit others as well.

------------------------------------------------------------
          Leaving FHI-aims.
          Date     :  20200805, Time     :  182921.109

          Computational steps:
          | Number of self-consistency cycles          :           16
          | Number of SCF (re)initializations          :            1

          Detailed time accounting                     :  max(cpu_time)    wall_clock(cpu1)
          | Total time                                 :       22.645 s          22.738 s
          | Preparation time                           :        0.148 s           0.150 s
          | Boundary condition initalization           :        0.000 s           0.000 s
          | Grid partitioning                          :        0.112 s           0.113 s
          | Preloading free-atom quantities on grid    :        0.002 s           0.002 s
          | Free-atom superposition energy             :        0.085 s           0.085 s
          | Total time for integrations                :        8.591 s           8.610 s
          | Total time for solution of K.-S. equations :        0.036 s           0.041 s
          | Total time for density & force components  :        7.097 s           7.117 s
          | Total time for mixing                      :        0.221 s           0.222 s
          | Total time for Hartree multipole update    :        0.141 s           0.141 s
          | Total time for Hartree multipole sum       :        5.813 s           5.817 s
          | Total time for total energy evaluation     :        0.003 s           0.002 s
          | Total time for vdW correction              :        0.089 s           0.090 s

          Partial memory accounting:
          | Residual value for overall tracked memory usage across tasks :           0.000 MB (should be 0.000 MB)
          | Peak values for overall tracked memory usage (after allocating hessian_basis_wave):
          |   Minimum:        1.622 MB (on task 1)
          |   Maximum:        1.622 MB (on task 1)
          |   Average:        1.622 MB
          | Largest tracked array allocation (hessian_basis_wave):
          |   Minimum:        0.794 MB (on task 1)
          |   Maximum:        0.794 MB (on task 1)
          |   Average:        0.794 MB
          Note:  These values currently only include a subset of arrays which are explicitly tracked.
          The "true" memory usage will be greater.

          Have a nice day.
------------------------------------------------------------
