  MPI-parallelism will be employed.
------------------------------------------------------------
          Invoking FHI-aims ...
          Version 171221_1
          Compiled on 2019/09/09 at 14:39:39 on host puhti-login2.bullx.

          When using FHI-aims, please cite the following reference:

          Volker Blum, Ralf Gehrke, Felix Hanke, Paula Havu,
          Ville Havu, Xinguo Ren, Karsten Reuter, and Matthias Scheffler,
          'Ab Initio Molecular Simulations with Numeric Atom-Centered Orbitals',
          Computer Physics Communications 180, 2175-2196 (2009)

          For any questions about FHI-aims, please visit the aimsclub website
          with its forums and wiki. Contributions to both the forums and the
          wiki are warmly encouraged - they are for you, and everyone is welcome there.

------------------------------------------------------------



  Date     :  20200710, Time     :  151612.537
  Time zero on CPU 1             :   0.113340000000000E-01  s.
  Internal wall clock time zero  :           363626172.537  s.

  FHI-aims created a unique identifier for this run for later identification
  aims_uuid : BE212AE6-758C-4DF4-A0F3-8A2614A4C20B

  Using        1 parallel tasks.
  Task        0 on host r18c43.bullx reporting.

  Performing system and environment tests:
  | Environment variable OMP_NUM_THREADS correctly set to 1.
  | Stacksize not measured: no C compiler
  | Checking for scalapack...
  | Testing pdtran()...
  | All pdtran() tests passed.

  Obtaining array dimensions for all initial allocations:
  
  -----------------------------------------------------------------------
  Parsing control.in (first pass over file, find array dimensions only).
  The contents of control.in will be repeated verbatim below
  unless switched off by setting 'verbatim_writeout .false.' .
  in the first line of control.in .
  -----------------------------------------------------------------------
  
  #########################################################################################
  #
  #  Volker Blum, FHI 2009 : Test run input file control.in for simple H2O
  #
  #########################################################################################
  #
  #  Physical model
  #
    xc                 pbe
    vdw_correction_hirshfeld
    spin               none
    relativistic       none
    charge             0.
  #
  #  SCF convergence
  #
    occupation_type    gaussian 0.01
    mixer              pulay
      n_max_pulay        10
      charge_mix_param   0.2
    sc_accuracy_rho    1E-5
    sc_accuracy_eev    1E-3
    sc_accuracy_etot   1E-6
    sc_accuracy_forces 1E-4
    sc_iter_limit      100
  #
  #  Relaxation
  #
  #  relax_geometry   bfgs 1.e-3
  #
  ################################################################################
  #
  #  FHI-aims code project
  #  VB, Fritz-Haber Institut, 2009
  #
  #  Suggested "light" defaults for H atom (to be pasted into control.in file)
  #  Be sure to double-check any results obtained with these settings for post-processing,
  #  e.g., with the "tight" defaults and larger basis sets.
  #
  ################################################################################
    species        H
  #     global species definitions
      nucleus             1
      mass                1.00794
  #
      l_hartree           4
  #
      cut_pot             3.5  1.5  1.0
      basis_dep_cutoff    1e-4
  #
      radial_base         24 5.0
      radial_multiplier   1
      angular_grids       specified
        division   0.2421   50
        division   0.3822  110
        division   0.4799  194
        division   0.5341  302
  #      division   0.5626  434
  #      division   0.5922  590
  #      division   0.6542  770
  #      division   0.6868 1202
  #      outer_grid  770
        outer_grid  302
  ################################################################################
  #
  #  Definition of "minimal" basis
  #
  ################################################################################
  #     valence basis states
      valence      1  s   1.
  #     ion occupancy
      ion_occ      1  s   0.5
  ################################################################################
  #
  #  Suggested additional basis functions. For production calculations,
  #  uncomment them one after another (the most important basis functions are
  #  listed first).
  #
  #  Basis constructed for dimers: 0.5 A, 0.7 A, 1.0 A, 1.5 A, 2.5 A
  #
  ################################################################################
  #  "First tier" - improvements: -1014.90 meV to -62.69 meV
       hydro 2 s 2.1
       hydro 2 p 3.5
  #  "Second tier" - improvements: -12.89 meV to -1.83 meV
  #     hydro 1 s 0.85
  #     hydro 2 p 3.7
  #     hydro 2 s 1.2
  #     hydro 3 d 7
  #  "Third tier" - improvements: -0.25 meV to -0.12 meV
  #     hydro 4 f 11.2
  #     hydro 3 p 4.8
  #     hydro 4 d 9
  #     hydro 3 s 3.2
  ################################################################################
  #
  #  FHI-aims code project
  #  VB, Fritz-Haber Institut, 2009
  #
  #  Suggested "light" defaults for C atom (to be pasted into control.in file)
  #  Be sure to double-check any results obtained with these settings for post-processing,
  #  e.g., with the "tight" defaults and larger basis sets.
  #
  ################################################################################
    species        C
  #     global species definitions
      nucleus             6
      mass                12.0107
  #
      l_hartree           4
  #
      cut_pot             3.5  1.5  1.0
      basis_dep_cutoff    1e-4
  #
      radial_base         34 5.0
      radial_multiplier   1
      angular_grids specified
        division   0.3326   50
        division   0.5710  110
        division   0.7727  194
        division   0.8772  302
  #      division   0.9334  434
  #      division   0.9625  590
  #      division   0.9924  770
  #      division   1.0230  974
  #      division   1.4589 1202
  #     outer_grid  974
       outer_grid 302
  ################################################################################
  #
  #  Definition of "minimal" basis
  #
  ################################################################################
  #     valence basis states
      valence      2  s   2.
      valence      2  p   2.
  #     ion occupancy
      ion_occ      2  s   1.
      ion_occ      2  p   1.
  ################################################################################
  #
  #  Suggested additional basis functions. For production calculations,
  #  uncomment them one after another (the most important basis functions are
  #  listed first).
  #
  #  Constructed for dimers: 1.0 A, 1.25 A, 1.5 A, 2.0 A, 3.0 A
  #
  ################################################################################
  #  "First tier" - improvements: -1214.57 meV to -155.61 meV
       hydro 2 p 1.7
       hydro 3 d 6
       hydro 2 s 4.9
  #  "Second tier" - improvements: -67.75 meV to -5.23 meV
  #     hydro 4 f 9.8
  #     hydro 3 p 5.2
  #     hydro 3 s 4.3
  #     hydro 5 g 14.4
  #     hydro 3 d 6.2
  #  "Third tier" - improvements: -2.43 meV to -0.60 meV
  #     hydro 2 p 5.6
  #     hydro 2 s 1.4
  #     hydro 3 d 4.9
  #     hydro 4 f 11.2
  #  "Fourth tier" - improvements: -0.39 meV to -0.18 meV
  #     hydro 2 p 2.1
  #     hydro 5 g 16.4
  #     hydro 4 d 13.2
  #     hydro 3 s 13.6
  #     hydro 4 f 17.6
  #  Further basis functions - improvements: -0.08 meV and below
  #     hydro 3 s 2
  #     hydro 3 p 6
  #     hydro 4 d 20
  ################################################################################
  #
  #  FHI-aims code project
  #  VB, Fritz-Haber Institut, 2009
  #
  #  Suggested "light" defaults for N atom (to be pasted into control.in file)
  #  Be sure to double-check any results obtained with these settings for post-processing,
  #  e.g., with the "tight" defaults and larger basis sets.
  #
  ################################################################################
    species        N
  #     global species definitions
      nucleus             7
      mass                14.0067
  #
      l_hartree           4
  #
      cut_pot             3.5  1.5  1.0
      basis_dep_cutoff    1e-4
  #
      radial_base         35 5.0
      radial_multiplier   1
      angular_grids       specified
        division   0.2599   50
        division   0.4601  110
        division   0.5885  194
        division   0.6503  302
  #      division   0.6939  434
  #      division   0.7396  590
  #      division   0.7632  770
  #      division   0.8122  974
  #      division   1.1604 1202
  #      outer_grid  974
        outer_grid  302
  ################################################################################
  #
  #  Definition of "minimal" basis
  #
  ################################################################################
  #     valence basis states
      valence      2  s   2.
      valence      2  p   3.
  #     ion occupancy
      ion_occ      2  s   1.
      ion_occ      2  p   2.
  ################################################################################
  #
  #  Suggested additional basis functions. For production calculations,
  #  uncomment them one after another (the most important basis functions are
  #  listed first).
  #
  #  Constructed for dimers: 1.0 A, 1.1 A, 1.5 A, 2.0 A, 3.0 A
  #
  ################################################################################
  #  "First tier" - improvements: -1193.42 meV to -220.60 meV
       hydro 2 p 1.8
       hydro 3 d 6.8
       hydro 3 s 5.8
  #  "Second tier" - improvements: -80.21 meV to -6.86 meV
  #     hydro 4 f 10.8
  #     hydro 3 p 5.8
  #     hydro 1 s 0.8
  #     hydro 5 g 16
  #     hydro 3 d 4.9
  #  "Third tier" - improvements: -4.29 meV to -0.53 meV
  #     hydro 3 s 16
  #     ionic 2 p auto
  #     hydro 3 d 6.6
  #     hydro 4 f 11.6
  #  "Fourth tier" - improvements: -0.75 meV to -0.25 meV
  #     hydro 2 p 4.5
  #     hydro 2 s 2.4
  #     hydro 5 g 14.4
  #     hydro 4 d 14.4
  #     hydro 4 f 16.8
  # Further basis functions - -0.21 meV and below
  #     hydro 3 p 14.8
  #     hydro 3 s 4.4
  #     hydro 3 d 19.6
  #     hydro 5 g 12.8
  ################################################################################
  #
  #  FHI-aims code project
  #  VB, Fritz-Haber Institut, 2009
  #
  #  Suggested "light" defaults for O atom (to be pasted into control.in file)
  #  Be sure to double-check any results obtained with these settings for post-processing,
  #  e.g., with the "tight" defaults and larger basis sets.
  #
  ################################################################################
    species        O
  #     global species definitions
      nucleus             8
      mass                15.9994
  #
      l_hartree           4
  #
      cut_pot             3.5  1.5  1.0
      basis_dep_cutoff    1e-4
  #
      radial_base         36 5.0
      radial_multiplier   1
       angular_grids specified
        division   0.2659   50
        division   0.4451  110
        division   0.6052  194
        division   0.7543  302
  #      division   0.8014  434
  #      division   0.8507  590
  #      division   0.8762  770
  #      division   0.9023  974
  #      division   1.2339 1202
  #      outer_grid 974
        outer_grid 302
  ################################################################################
  #
  #  Definition of "minimal" basis
  #
  ################################################################################
  #     valence basis states
      valence      2  s   2.
      valence      2  p   4.
  #     ion occupancy
      ion_occ      2  s   1.
      ion_occ      2  p   3.
  ################################################################################
  #
  #  Suggested additional basis functions. For production calculations,
  #  uncomment them one after another (the most important basis functions are
  #  listed first).
  #
  #  Constructed for dimers: 1.0 A, 1.208 A, 1.5 A, 2.0 A, 3.0 A
  #
  ################################################################################
  #  "First tier" - improvements: -699.05 meV to -159.38 meV
       hydro 2 p 1.8
       hydro 3 d 7.6
       hydro 3 s 6.4
  #  "Second tier" - improvements: -49.91 meV to -5.39 meV
  #     hydro 4 f 11.6
  #     hydro 3 p 6.2
  #     hydro 3 d 5.6
  #     hydro 5 g 17.6
  #     hydro 1 s 0.75
  #  "Third tier" - improvements: -2.83 meV to -0.50 meV
  #     ionic 2 p auto
  #     hydro 4 f 10.8
  #     hydro 4 d 4.7
  #     hydro 2 s 6.8
  #  "Fourth tier" - improvements: -0.40 meV to -0.12 meV
  #     hydro 3 p 5
  #     hydro 3 s 3.3
  #     hydro 5 g 15.6
  #     hydro 4 f 17.6
  #     hydro 4 d 14
  # Further basis functions - -0.08 meV and below
  #     hydro 3 s 2.1
  #     hydro 4 d 11.6
  #     hydro 3 p 16
  #     hydro 2 s 17.2
  
  -----------------------------------------------------------------------
  Completed first pass over input file control.in .
  -----------------------------------------------------------------------
  
  
  -----------------------------------------------------------------------
  Parsing geometry.in (first pass over file, find array dimensions only).
  The contents of geometry.in will be repeated verbatim below
  unless switched off by setting 'verbatim_writeout .false.' .
  in the first line of geometry.in .
  -----------------------------------------------------------------------
  
  atom  0.00000 0.00000 0.00000 C
  atom  1.09300 0.00000 0.00000 H
  atom  -0.47961 0.00000 -1.41207 N
  atom  -1.28422 -0.62388 -1.48422 H
  atom  -0.74613 0.94880 -1.66675 H
  atom  -0.49584 1.26211 0.72868 C
  atom  -1.58789 1.28919 0.74431 H
  atom  -0.13407 1.27425 1.75947 H
  atom  -0.13407 2.16087 0.22380 H
  atom  -0.39425 -1.28861 0.74398 C
  atom  -0.10189 -1.56493 1.88303 O
  atom  -1.10210 -2.13717 0.06896 O
  atom  -0.66808 -2.02910 -0.79413 H
  
  -----------------------------------------------------------------------
  Completed first pass over input file geometry.in .
  -----------------------------------------------------------------------
  

  Basic array size parameters:
  | Number of species                 :        4
  | Number of atoms                   :       13
  | Max. basis fn. angular momentum   :        2
  | Max. atomic/ionic basis occupied n:        2
  | Max. number of basis fn. types    :        2
  | Max. radial fns per species/type  :        3
  | Max. logarithmic grid size        :     1301
  | Max. radial integration grid size :       36
  | Max. angular integration grid size:      302
  | Max. angular grid division number :        8
  | Radial grid for Hartree potential :     1301
  | Number of spin channels           :        1

------------------------------------------------------------
          Reading file control.in.
------------------------------------------------------------
  XC: Using PBE gradient-corrected functionals.
  Spin treatment: No spin polarisation.
  Non-relativistic treatment of kinetic energy.
  Charge =   0.000000E+00: Neutral system requested explicitly.
  Occupation type: Gaussian broadening, width =   0.100000E-01 eV.
  Using pulay charge density mixing.
  Pulay mixing - number of memorized iterations:   10
  Charge density mixing - mixing parameter:     0.2000
  Convergence accuracy of self-consistent charge density:  0.1000E-04
  Convergence accuracy of sum of eigenvalues:  0.1000E-02
  Convergence accuracy of total energy:  0.1000E-05
  Convergence accuracy of forces:  0.1000E-03
  Maximum number of s.-c. iterations  :   100
 
  Reading configuration options for species H                   .
  | Found nuclear charge :   1.0000
  | Found atomic mass :    1.00794000000000      amu
  | Found l_max for Hartree potential  :   4
  | Found cutoff potl. onset [A], width [A], scale factor :    3.50000    1.50000    1.00000
  | Threshold for basis-dependent cutoff potential is   0.100000E-03
  | Found data for basic radial integration grid :    24 points, outermost radius =    5.000 A
  | Found multiplier for basic radial grid :   1
  | Found angular grid specification: user-specified.
  | Specified grid contains     5 separate shells.
  | Check grid settings after all constraints further below.
  | Found free-atom valence shell :  1 s   1.000
  | No ionic wave fns used. Skipping ion_occ.
  | Found hydrogenic basis function :  2 s   2.100
  | Found hydrogenic basis function :  2 p   3.500
  Species H                   : Missing cutoff potential type.
  Defaulting to exp(1/x)/(1-x)^2 type cutoff potential.
  Species H : No 'logarithmic' tag. Using default grid for free atom:
  | Default logarithmic grid data [bohr] : 0.1000E-03 0.1000E+03 0.1012E+01
  Species H : On-site basis accuracy parameter (for Gram-Schmidt orthonormalisation) not specified.
  Using default value basis_acc =  0.1000000E-03.
  Species H                   : Using default innermost maximum threshold i_radial=  2 for radial functions.
  Species H                   : Default cutoff onset for free atom density etc. : 0.35000000E+01 AA.
  Species H                   : Basic radial grid will be enhanced according to radial_multiplier =   1, to contain    24 grid points.
 
  Reading configuration options for species C                   .
  | Found nuclear charge :   6.0000
  | Found atomic mass :    12.0107000000000      amu
  | Found l_max for Hartree potential  :   4
  | Found cutoff potl. onset [A], width [A], scale factor :    3.50000    1.50000    1.00000
  | Threshold for basis-dependent cutoff potential is   0.100000E-03
  | Found data for basic radial integration grid :    34 points, outermost radius =    5.000 A
  | Found multiplier for basic radial grid :   1
  | Found angular grid specification: user-specified.
  | Specified grid contains     5 separate shells.
  | Check grid settings after all constraints further below.
  | Found free-atom valence shell :  2 s   2.000
  | Found free-atom valence shell :  2 p   2.000
  | No ionic wave fns used. Skipping ion_occ.
  | No ionic wave fns used. Skipping ion_occ.
  | Found hydrogenic basis function :  2 p   1.700
  | Found hydrogenic basis function :  3 d   6.000
  | Found hydrogenic basis function :  2 s   4.900
  Species C                   : Missing cutoff potential type.
  Defaulting to exp(1/x)/(1-x)^2 type cutoff potential.
  Species C : No 'logarithmic' tag. Using default grid for free atom:
  | Default logarithmic grid data [bohr] : 0.1000E-03 0.1000E+03 0.1012E+01
  Species C : On-site basis accuracy parameter (for Gram-Schmidt orthonormalisation) not specified.
  Using default value basis_acc =  0.1000000E-03.
  Species C                   : Using default innermost maximum threshold i_radial=  2 for radial functions.
  Species C                   : Default cutoff onset for free atom density etc. : 0.35000000E+01 AA.
  Species C                   : Basic radial grid will be enhanced according to radial_multiplier =   1, to contain    34 grid points.
 
  Reading configuration options for species N                   .
  | Found nuclear charge :   7.0000
  | Found atomic mass :    14.0067000000000      amu
  | Found l_max for Hartree potential  :   4
  | Found cutoff potl. onset [A], width [A], scale factor :    3.50000    1.50000    1.00000
  | Threshold for basis-dependent cutoff potential is   0.100000E-03
  | Found data for basic radial integration grid :    35 points, outermost radius =    5.000 A
  | Found multiplier for basic radial grid :   1
  | Found angular grid specification: user-specified.
  | Specified grid contains     5 separate shells.
  | Check grid settings after all constraints further below.
  | Found free-atom valence shell :  2 s   2.000
  | Found free-atom valence shell :  2 p   3.000
  | No ionic wave fns used. Skipping ion_occ.
  | No ionic wave fns used. Skipping ion_occ.
  | Found hydrogenic basis function :  2 p   1.800
  | Found hydrogenic basis function :  3 d   6.800
  | Found hydrogenic basis function :  3 s   5.800
  Species N                   : Missing cutoff potential type.
  Defaulting to exp(1/x)/(1-x)^2 type cutoff potential.
  Species N : No 'logarithmic' tag. Using default grid for free atom:
  | Default logarithmic grid data [bohr] : 0.1000E-03 0.1000E+03 0.1012E+01
  Species N : On-site basis accuracy parameter (for Gram-Schmidt orthonormalisation) not specified.
  Using default value basis_acc =  0.1000000E-03.
  Species N                   : Using default innermost maximum threshold i_radial=  2 for radial functions.
  Species N                   : Default cutoff onset for free atom density etc. : 0.35000000E+01 AA.
  Species N                   : Basic radial grid will be enhanced according to radial_multiplier =   1, to contain    35 grid points.
 
  Reading configuration options for species O                   .
  | Found nuclear charge :   8.0000
  | Found atomic mass :    15.9994000000000      amu
  | Found l_max for Hartree potential  :   4
  | Found cutoff potl. onset [A], width [A], scale factor :    3.50000    1.50000    1.00000
  | Threshold for basis-dependent cutoff potential is   0.100000E-03
  | Found data for basic radial integration grid :    36 points, outermost radius =    5.000 A
  | Found multiplier for basic radial grid :   1
  | Found angular grid specification: user-specified.
  | Specified grid contains     5 separate shells.
  | Check grid settings after all constraints further below.
  | Found free-atom valence shell :  2 s   2.000
  | Found free-atom valence shell :  2 p   4.000
  | No ionic wave fns used. Skipping ion_occ.
  | No ionic wave fns used. Skipping ion_occ.
  | Found hydrogenic basis function :  2 p   1.800
  | Found hydrogenic basis function :  3 d   7.600
  | Found hydrogenic basis function :  3 s   6.400
  Species O                   : Missing cutoff potential type.
  Defaulting to exp(1/x)/(1-x)^2 type cutoff potential.
  Species O : No 'logarithmic' tag. Using default grid for free atom:
  | Default logarithmic grid data [bohr] : 0.1000E-03 0.1000E+03 0.1012E+01
  Species O : On-site basis accuracy parameter (for Gram-Schmidt orthonormalisation) not specified.
  Using default value basis_acc =  0.1000000E-03.
  Species O                   : Using default innermost maximum threshold i_radial=  2 for radial functions.
  Species O                   : Default cutoff onset for free atom density etc. : 0.35000000E+01 AA.
  Species O                   : Basic radial grid will be enhanced according to radial_multiplier =   1, to contain    36 grid points.
 
  Finished reading input file 'control.in'. Consistency checks are next.
 
  MPI_IN_PLACE appears to work with this MPI implementation.
  | Keeping use_mpi_in_place .true. (see manual).
  Target number of points in a grid batch is not set. Defaulting to  100
  Method for grid partitioning is not set. Defaulting to parallel hash+maxmin partitioning.
  Batch size limit is not set. Defaulting to    200
  By default, will store active basis functions for each batch.
  If in need of memory, prune_basis_once .false. can be used to disable this option.
  communication_type for Hartree potential was not specified.
  Defaulting to calc_hartree .
  Pulay mixer: Number of initial linear mixing iterations not set.
  Defaulting to    0 iterations.
  Work space size for distributed Hartree potential not set.
  Defaulting to   0.200000E+03 MB.
  Algorithm-dependent basis array size parameters:
  | n_max_pulay                         :       10
  Presetting      1001 iterations before the initial mixing cycle
  is restarted anyway using the sc_init_iter criterion / keyword.
  Presetting a factor      1.000 between actual scf density residual
  and density convergence criterion sc_accuracy_rho below which sc_init_iter
  takes no effect.
  Geometry relaxation not requested: no relaxation will be performed.
  Handling of forces: Unphysical translation and rotation will be removed from forces.
  No accuracy limit for integral partition fn. given. Defaulting to  0.1000E-14.
  No threshold value for u(r) in integrations given. Defaulting to  0.1000E-05.
  No accuracy for occupation numbers given. Defaulting to  0.1000E-12.
  No threshold value for occupation numbers given. Defaulting to  0.0000E+00.
  No accuracy for fermi level given. Defaulting to  0.1000E-19.
  Maximum # of iterations to find E_F not set. Defaulting to  200.
  Preferred method for the eigenvalue solver ('KS_method') not specified in 'control.in'.
  Defaulting to serial version, 'lapack_fast'.
  Will not use alltoall communication since running on < 1024 CPUs.
  Threshold for basis singularities not set.
  Default threshold for basis singularities:  0.1000E-04
  partition_type (choice of integration weights) for integrals was not specified.
  | Using a version of the partition function of Stratmann and coworkers ('stratmann_smoother').
  | At each grid point, the set of atoms used to build the partition table is smoothly restricted to
  | only those atoms whose free-atom density would be non-zero at that grid point.
  Partitioning for Hartree potential was not defined. Using partition_type for integrals.
  | Adjusted default value of keyword multip_moments_threshold to:       0.10000000E-11
  | This value may affect high angular momentum components of the Hartree potential in periodic systems.
  No q(lm)/r^(l+1) cutoff set for long-range Hartree potential.
  | Using default value of  0.100000E-09 .
  | Verify using the multipole_threshold keyword.
  Defaulting to new monopole extrapolation.
  Density update method: automatic selection selected.
------------------------------------------------------------


------------------------------------------------------------
          Reading geometry description geometry.in.
------------------------------------------------------------
  Input structure read successfully.
  The structure contains       13 atoms,  and a total of         48.000 electrons.

  Input geometry:
  | No unit cell requested.
  | Atomic structure:
  |       Atom                x [A]            y [A]            z [A]
  |    1: Species C             0.00000000        0.00000000        0.00000000
  |    2: Species H             1.09300000        0.00000000        0.00000000
  |    3: Species N            -0.47961000        0.00000000       -1.41207000
  |    4: Species H            -1.28422000       -0.62388000       -1.48422000
  |    5: Species H            -0.74613000        0.94880000       -1.66675000
  |    6: Species C            -0.49584000        1.26211000        0.72868000
  |    7: Species H            -1.58789000        1.28919000        0.74431000
  |    8: Species H            -0.13407000        1.27425000        1.75947000
  |    9: Species H            -0.13407000        2.16087000        0.22380000
  |   10: Species C            -0.39425000       -1.28861000        0.74398000
  |   11: Species O            -0.10189000       -1.56493000        1.88303000
  |   12: Species O            -1.10210000       -2.13717000        0.06896000
  |   13: Species H            -0.66808000       -2.02910000       -0.79413000
  |

  | The smallest distance between any two atoms is         0.97209919 AA.
  |
  | The first atom of this pair is atom number                     12 .
  | The second atom of this pair is atom number                    13 .

  Number of empty states per atom not set in control.in - providing a guess from actual geometry.
  | Total number of empty states used during s.c.f. cycle:       29
  If you use a very high smearing, use empty_states (per atom!) in control.in to increase this value.

  Structure-dependent array size parameters: 
  | Maximum number of distinct radial functions  :       21
  | Maximum number of basis functions            :      119
  | Number of Kohn-Sham states (occupied + empty):       53
------------------------------------------------------------

------------------------------------------------------------
          Preparing all fixed parts of the calculation.
------------------------------------------------------------
  Determining machine precision:
    2.225073858507201E-308
  Setting up grids for atomic and cluster calculations.

  Creating wave function, potential, and density for free atoms.

  Species: H

  List of occupied orbitals and eigenvalues:
    n    l              occ      energy [Ha]    energy [eV]
    1    0           1.0000        -0.237589        -6.4651


  Species: C

  List of occupied orbitals and eigenvalues:
    n    l              occ      energy [Ha]    energy [eV]
    1    0           2.0000       -10.038835      -273.1706
    2    0           2.0000        -0.502696       -13.6791
    2    1           2.0000        -0.191971        -5.2238


  Species: N

  List of occupied orbitals and eigenvalues:
    n    l              occ      energy [Ha]    energy [eV]
    1    0           2.0000       -14.128000      -384.4424
    2    0           2.0000        -0.681077       -18.5330
    2    1           3.0000        -0.259788        -7.0692


  Species: O

  List of occupied orbitals and eigenvalues:
    n    l              occ      energy [Ha]    energy [eV]
    1    0           2.0000       -18.898188      -514.2459
    2    0           2.0000        -0.878505       -23.9053
    2    1           4.0000        -0.331779        -9.0282

  Creating fixed part of basis set: Ionic, confined, hydrogenic.
 
  H                    hydrogenic:
 
  List of hydrogenic basis orbitals: 
    n    l      effective z      eigenvalue [eV]  inner max. [A]     outer max. [A]     outer radius [A]   
    2    0         2.100000       -14.9728           0.193243           1.317208           4.583499
    2    1         3.500000       -41.6669           0.602369           0.602369           3.723403
 
 
  C                    hydrogenic:
 
  List of hydrogenic basis orbitals: 
    n    l      effective z      eigenvalue [eV]  inner max. [A]     outer max. [A]     outer radius [A]   
    2    1         1.700000        -9.7616           1.230570           1.230570           4.607917
    3    2         6.000000       -54.4224           0.792453           0.792453           3.883070
    2    0         4.900000       -81.6679           0.082559           0.562749           3.078220
 
 
  N                    hydrogenic:
 
  List of hydrogenic basis orbitals: 
    n    l      effective z      eigenvalue [eV]  inner max. [A]     outer max. [A]     outer radius [A]   
    2    1         1.800000       -10.9749           1.177451           1.177451           4.573712
    3    2         6.800000       -69.9026           0.704619           0.704619           3.538137
    3    0         5.800000       -50.8545           0.067388           1.191934           4.250239
 
 
  O                    hydrogenic:
 
  List of hydrogenic basis orbitals: 
    n    l      effective z      eigenvalue [eV]  inner max. [A]     outer max. [A]     outer radius [A]   
    2    1         1.800000       -10.9749           1.164242           1.164242           4.578029
    3    2         7.600000       -87.3180           0.624125           0.624125           3.251020
    3    0         6.400000       -61.9207           0.061167           1.081902           4.001998
 

  Adding cutoff potential to free-atom effective potential.
  Creating atomic-like basis functions for current effective potential.

  Species H                   :

  List of atomic basis orbitals and eigenvalues:
    n    l      energy [Ha]    energy [eV]    outer radius [A]
    1    0        -0.237589        -6.4651       4.527807


  Species C                   :

  List of atomic basis orbitals and eigenvalues:
    n    l      energy [Ha]    energy [eV]    outer radius [A]
    1    0       -10.038835      -273.1706       1.934409
    2    0        -0.502696       -13.6791       4.496620
    2    1        -0.191971        -5.2238       4.551928


  Species N                   :

  List of atomic basis orbitals and eigenvalues:
    n    l      energy [Ha]    energy [eV]    outer radius [A]
    1    0       -14.128000      -384.4424       1.637919
    2    0        -0.681077       -18.5330       4.463241
    2    1        -0.259788        -7.0692       4.518138


  Species O                   :

  List of atomic basis orbitals and eigenvalues:
    n    l      energy [Ha]    energy [eV]    outer radius [A]
    1    0       -18.898188      -514.2459       1.415765
    2    0        -0.878505       -23.9053       4.413171
    2    1        -0.331779        -9.0282       4.522403

  Assembling full basis from fixed parts.
  | Species H :   atomic orbital   1 s accepted.
  | Species H :    hydro orbital   2 s accepted.
  | Species H :    hydro orbital   2 p accepted.
  | Species C :   atomic orbital   1 s accepted.
  | Species C :    hydro orbital   2 s accepted.
  | Species C :   atomic orbital   2 s accepted.
  | Species C :   atomic orbital   2 p accepted.
  | Species C :    hydro orbital   2 p accepted.
  | Species C :    hydro orbital   3 d accepted.
  | Species N :   atomic orbital   1 s accepted.
  | Species N :    hydro orbital   3 s accepted.
  | Species N :   atomic orbital   2 s accepted.
  | Species N :   atomic orbital   2 p accepted.
  | Species N :    hydro orbital   2 p accepted.
  | Species N :    hydro orbital   3 d accepted.
  | Species O :   atomic orbital   1 s accepted.
  | Species O :    hydro orbital   3 s accepted.
  | Species O :   atomic orbital   2 s accepted.
  | Species O :   atomic orbital   2 p accepted.
  | Species O :    hydro orbital   2 p accepted.
  | Species O :    hydro orbital   3 d accepted.
 
  Basis size parameters after reduction:
  | Total number of radial functions:       21
  | Total number of basis functions :      119
 
  Per-task memory consumption for arrays in subroutine allocate_ext:
  |           5.250512MB.
  Testing on-site integration grid accuracy.
  |  Species  Function  <phi|h_atom|phi> (log., in eV)  <phi|h_atom|phi> (rad., in eV)
           1        1                 -6.4663192853                 -6.4651273558
           1        2                 13.7111246313                 13.7170609718
           1        3                 25.2673269279                 25.2674696378
           2        4               -273.1705927641               -273.1705631568
           2        5                -10.7109323383                -10.7107120029
           2        6                 17.4381822266                 17.4352413244
           2        7                 -5.2255326521                 -5.2270484734
           2        8                  8.6835629259                  8.6603288385
           2        9                 27.4952418996                 27.4953360207
           3       10               -384.4424306495               -384.4423701208
           3       11                 12.5842251816                 12.5842222903
           3       12                -15.7264628251                -15.7264433455
           3       13                 -7.0696854293                 -7.0701769954
           3       14                  8.8090390882                  8.7901077751
           3       15                 35.9586762123                 35.9588528632
           4       16               -514.2458688638               -514.2457643834
           4       17                 15.1795651126                 15.1795290741
           4       18                -21.5359799773                -21.5360846186
           4       19                 -9.0283069236                 -9.0284644067
           4       20                  8.3027758564                  8.2834874195
           4       21                 45.8339351984                 45.8338762259

  Preparing densities etc. for the partition functions (integrals / Hartree potential).

  Preparations completed.
  max(cpu_time)          :      0.148 s.
  Wall clock time (cpu1) :      0.149 s.
------------------------------------------------------------

------------------------------------------------------------
          Begin self-consistency loop: Initialization.

          Date     :  20200710, Time     :  151612.701
------------------------------------------------------------

  Initializing index lists of integration centers etc. from given atomic structure:
  | Number of centers in hartree potential         :        13
  | Number of centers in hartree multipole         :        13
  | Number of centers in electron density summation:        13
  | Number of centers in basis integrals           :        13
  | Number of centers in integrals                 :        13
  | Number of centers in hamiltonian               :        13
  Partitioning the integration grid into batches with parallel hashing+maxmin method.
  | Number of batches:      964
  | Maximal batch size:     138
  | Minimal batch size:      66
  | Average batch size:      72.247
  | Standard deviation of batch sizes:      16.448

  Integration load balanced across     1 MPI tasks.
  Work distribution over tasks is as follows:
  Task     0 has      69646 integration points.
  Initializing partition tables, free-atom densities, potentials, etc. across the integration grid (initialize_grid_storage).
  | initialize_grid_storage: Actual outermost partition radius vs. multipole_radius_free
  | (-- VB: in principle, multipole_radius_free should be larger, hence this output)
  | Species        1: Confinement radius =              4.999999999999999 AA, multipole_radius_free =              5.054417573612229 AA.
  | Species        1: outer_partition_radius set to              5.054417573612229 AA .
  | Species        2: Confinement radius =              4.999999999999999 AA, multipole_radius_free =              5.019602836301480 AA.
  | Species        2: outer_partition_radius set to              5.019602836301480 AA .
  | Species        3: Confinement radius =              4.999999999999999 AA, multipole_radius_free =              5.043624274424571 AA.
  | Species        3: outer_partition_radius set to              5.043624274424571 AA .
  | Species        4: Confinement radius =              4.999999999999999 AA, multipole_radius_free =              5.048384829883283 AA.
  | Species        4: outer_partition_radius set to              5.048384829883283 AA .
  | Original list of interatomic distances with          13 x         13 entries is created.
  | Net number of integration points:    69646
  | of which are non-zero points    :    59287
  Renormalizing the initial density to the exact electron count on the 3D integration grid.
  | Initial density: Formal number of electrons (from input files) :      48.0000000000
  | Integrated number of electrons on 3D grid     :      47.9998998904
  | Charge integration error                      :      -0.0001001096
  | Normalization factor for density and gradient :       1.0000020856
  Obtaining max. number of non-zero basis functions in each batch (get_n_compute_maxes).
  | Maximal number of non-zero basis functions:      119 in task     0
  Selecting the method for density update.
  Loop over occupied states selected for charge density update.
  Allocating        0.050 MB for KS_eigenvector
  Integrating Hamiltonian matrix: batch-based integration.
  Time summed over all CPUs for integration: real work        0.511 s, elapsed        0.511 s
  Integrating overlap matrix.
  Time summed over all CPUs for integration: real work        0.212 s, elapsed        0.212 s

  Updating Kohn-Sham eigenvalues and eigenvectors using ELSI and the ELPA eigensolver.
  Overlap matrix is nonsingular
  | Lowest eigenvalue of overlap  :  0.53E-02
  | Highest eigenvalue of overlap :  0.64E+01
  Finished singularity check of overlap matrix
  | Time :     0.002 s
  Finished Cholesky decomposition
  | Time :     0.000 s
  Finished transformation to standard eigenproblem
  | Time :     0.000 s
  Starting LAPACK eigensolver
  Finished solving standard eigenproblem
  | Time :     0.002 s
  Finished back-transformation of eigenvectors
  | Time :     0.000 s

  Obtaining occupation numbers and chemical potential using ELSI.
  | Chemical potential (Fermi level):    -9.60679475eV
  Writing Kohn-Sham eigenvalues.

  State    Occupation    Eigenvalue [Ha]    Eigenvalue [eV]
      1       2.00000         -19.008208         -517.23965
      2       2.00000         -18.977138         -516.39421
      3       2.00000         -14.246660         -387.67135
      4       2.00000         -10.166882         -276.65495
      5       2.00000         -10.141742         -275.97083
      6       2.00000         -10.132101         -275.70851
      7       2.00000          -1.182908          -32.18857
      8       2.00000          -1.101486          -29.97296
      9       2.00000          -0.993277          -27.02844
     10       2.00000          -0.859202          -23.38008
     11       2.00000          -0.756331          -20.58082
     12       2.00000          -0.682967          -18.58449
     13       2.00000          -0.646746          -17.59886
     14       2.00000          -0.594548          -16.17846
     15       2.00000          -0.578166          -15.73271
     16       2.00000          -0.567257          -15.43585
     17       2.00000          -0.557360          -15.16654
     18       2.00000          -0.530032          -14.42291
     19       2.00000          -0.519110          -14.12571
     20       2.00000          -0.504707          -13.73377
     21       2.00000          -0.468105          -12.73779
     22       2.00000          -0.428722          -11.66612
     23       2.00000          -0.405039          -11.02168
     24       2.00000          -0.388060          -10.55964
     25       0.00000          -0.153822           -4.18571
     26       0.00000          -0.068179           -1.85523
     27       0.00000          -0.027738           -0.75478
     28       0.00000          -0.014690           -0.39973
     29       0.00000          -0.001459           -0.03969
     30       0.00000           0.004040            0.10993
     31       0.00000           0.022801            0.62044
     32       0.00000           0.029708            0.80839
     33       0.00000           0.050413            1.37182
     34       0.00000           0.060080            1.63486
     35       0.00000           0.086400            2.35107
     36       0.00000           0.129940            3.53585
     37       0.00000           0.161514            4.39503
     38       0.00000           0.201666            5.48760
     39       0.00000           0.219692            5.97813
     40       0.00000           0.235003            6.39475
     41       0.00000           0.252545            6.87211
     42       0.00000           0.262478            7.14239
     43       0.00000           0.287834            7.83236
     44       0.00000           0.311651            8.48046
     45       0.00000           0.332597            9.05042
     46       0.00000           0.353489            9.61893
     47       0.00000           0.370891           10.09246
     48       0.00000           0.385109           10.47936
     49       0.00000           0.455577           12.39689
     50       0.00000           0.488177           13.28396
     51       0.00000           0.507549           13.81111
     52       0.00000           0.551021           14.99405
     53       0.00000           0.564424           15.35876

  Highest occupied state (VBM) at    -10.55964177 eV
  | Occupation number:      2.00000000

  Lowest unoccupied state (CBM) at    -4.18571228 eV
  | Occupation number:      0.00000000

  Overall HOMO-LUMO gap:      6.37392949 eV.
  Calculating total energy contributions from superposition of free atom densities.

  Total energy components:
  | Sum of eigenvalues            :        -188.87351248 Ha       -5139.50976999 eV
  | XC energy correction          :         -41.80709313 Ha       -1137.62888606 eV
  | XC potential correction       :          53.74544623 Ha        1462.48800240 eV
  | Free-atom electrostatic energy:        -146.81855009 Ha       -3995.13601818 eV
  | Hartree energy correction     :           0.00000000 Ha           0.00000000 eV
  | vdW energy correction         :           0.00000000 Ha           0.00000000 eV
  | Entropy correction            :           0.00000000 Ha           0.00000000 eV
  | ---------------------------
  | Total energy                  :        -323.75370948 Ha       -8809.78667183 eV
  | Total energy, T -> 0          :        -323.75370948 Ha       -8809.78667183 eV  <-- do not rely on this value for anything but (periodic) metals
  | Electronic free energy        :        -323.75370948 Ha       -8809.78667183 eV

  Derived energy quantities:
  | Kinetic energy                :         320.53935402 Ha        8722.31960960 eV
  | Electrostatic energy          :        -602.48597036 Ha      -16394.47739537 eV
  | Energy correction for multipole
  | error in Hartree potential    :           0.00000000 Ha           0.00000000 eV
  | Sum of eigenvalues per atom                           :        -395.34690538 eV
  | Total energy (T->0) per atom                          :        -677.67589783 eV  <-- do not rely on this value for anything but (periodic) metals
  | Electronic free energy per atom                       :        -677.67589783 eV
  Initialize hartree_potential_storage
  Max. number of atoms included in rho_multipole:           13

  End scf initialization - timings             :  max(cpu_time)    wall_clock(cpu1)
  | Time for scf. initialization               :        1.170 s           1.171 s
  | Boundary condition initialization          :        0.000 s           0.000 s
  | Integration                                :        0.724 s           0.724 s
  | Solution of K.-S. eqns.                    :        0.004 s           0.004 s
  | Grid partitioning                          :        0.113 s           0.113 s
  | Preloading free-atom quantities on grid    :        0.002 s           0.002 s
  | Free-atom superposition energy             :        0.084 s           0.084 s
  | Total energy evaluation                    :        0.000 s           0.000 s

  Partial memory accounting:
  | Current value for overall tracked memory usage on task 0  :           0.165 MB
  | Peak value for overall tracked memory usage on task 0     :           0.676 MB after allocating wave
  | Largest tracked array allocation on task 0 so far         :           0.131 MB  when allocating H_times_psi
  Note:  These values currently only include a subset of arrays which are explicitly tracked.
  The "true" memory usage will be greater.
------------------------------------------------------------

------------------------------------------------------------
          Begin self-consistency iteration #    1

  Date     :  20200710, Time     :  151613.872
------------------------------------------------------------
  Evaluating new KS density.
  Integration grid: deviation in total charge (<rho> - N_e) =   4.973799E-14
  Pulay mixing of updated and previous charge densities.

  Evaluating partitioned Hartree potential by multipole expansion.
  | Analytical far-field extrapolation by fixed multipoles:
  | Hartree multipole sum: apparent total charge =  -0.202654E-03
  Summing up the Hartree potential.
  Time summed over all CPUs for potential: real work        0.284 s, elapsed        0.284 s
  | RMS charge density error from multipole expansion :   0.590187E-02

  Integrating Hamiltonian matrix: batch-based integration.
  Time summed over all CPUs for integration: real work        0.504 s, elapsed        0.504 s

  Updating Kohn-Sham eigenvalues and eigenvectors using ELSI and the ELPA eigensolver.
  Finished Cholesky decomposition
  | Time :     0.000 s
  Finished transformation to standard eigenproblem
  | Time :     0.000 s
  Starting LAPACK eigensolver
  Finished solving standard eigenproblem
  | Time :     0.001 s
  Finished back-transformation of eigenvectors
  | Time :     0.000 s

  Obtaining occupation numbers and chemical potential using ELSI.
  | Chemical potential (Fermi level):    -8.55559232eV
  Writing Kohn-Sham eigenvalues.

  State    Occupation    Eigenvalue [Ha]    Eigenvalue [eV]
      1       2.00000         -18.909030         -514.54088
      2       2.00000         -18.833379         -512.48232
      3       2.00000         -14.105489         -383.82989
      4       2.00000         -10.117113         -275.30064
      5       2.00000         -10.067036         -273.93798
      6       2.00000         -10.034134         -273.04269
      7       2.00000          -1.136207          -30.91777
      8       2.00000          -1.037635          -28.23548
      9       2.00000          -0.929396          -25.29015
     10       2.00000          -0.796385          -21.67073
     11       2.00000          -0.706181          -19.21617
     12       2.00000          -0.641982          -17.46923
     13       2.00000          -0.595427          -16.20240
     14       2.00000          -0.533328          -14.51260
     15       2.00000          -0.528052          -14.36903
     16       2.00000          -0.516021          -14.04164
     17       2.00000          -0.490063          -13.33530
     18       2.00000          -0.469028          -12.76290
     19       2.00000          -0.464121          -12.62937
     20       2.00000          -0.447958          -12.18956
     21       2.00000          -0.413967          -11.26461
     22       2.00000          -0.369895          -10.06536
     23       2.00000          -0.332650           -9.05187
     24       2.00000          -0.319512           -8.69436
     25       0.00000          -0.117083           -3.18600
     26       0.00000          -0.046334           -1.26080
     27       0.00000           0.007409            0.20160
     28       0.00000           0.020831            0.56684
     29       0.00000           0.025177            0.68509
     30       0.00000           0.033490            0.91130
     31       0.00000           0.059243            1.61208
     32       0.00000           0.062737            1.70715
     33       0.00000           0.084316            2.29436
     34       0.00000           0.098633            2.68393
     35       0.00000           0.125367            3.41141
     36       0.00000           0.158989            4.32630
     37       0.00000           0.185915            5.05902
     38       0.00000           0.230012            6.25895
     39       0.00000           0.248176            6.75321
     40       0.00000           0.267248            7.27220
     41       0.00000           0.283814            7.72297
     42       0.00000           0.299199            8.14162
     43       0.00000           0.321960            8.76099
     44       0.00000           0.349887            9.52091
     45       0.00000           0.366814            9.98153
     46       0.00000           0.387050           10.53216
     47       0.00000           0.412165           11.21559
     48       0.00000           0.420185           11.43382
     49       0.00000           0.489477           13.31936
     50       0.00000           0.519859           14.14608
     51       0.00000           0.540053           14.69560
     52       0.00000           0.582052           15.83844
     53       0.00000           0.600077           16.32893

  Highest occupied state (VBM) at     -8.69436314 eV
  | Occupation number:      2.00000000

  Lowest unoccupied state (CBM) at    -3.18600371 eV
  | Occupation number:      0.00000000

  Overall HOMO-LUMO gap:      5.50835943 eV.

  Total energy components:
  | Sum of eigenvalues            :        -185.58798158 Ha       -5050.10592543 eV
  | XC energy correction          :         -42.13009419 Ha       -1146.41819199 eV
  | XC potential correction       :          54.16540746 Ha        1473.91572893 eV
  | Free-atom electrostatic energy:        -146.81855009 Ha       -3995.13601818 eV
  | Hartree energy correction     :          -3.20480292 Ha         -87.20712443 eV
  | vdW energy correction         :           0.00000000 Ha           0.00000000 eV
  | Entropy correction            :          -0.00000000 Ha          -0.00000000 eV
  | ---------------------------
  | Total energy                  :        -323.57602132 Ha       -8804.95153110 eV
  | Total energy, T -> 0          :        -323.57602132 Ha       -8804.95153110 eV  <-- do not rely on this value for anything but (periodic) metals
  | Electronic free energy        :        -323.57602132 Ha       -8804.95153110 eV

  Derived energy quantities:
  | Kinetic energy                :         322.30446494 Ha        8770.35072160 eV
  | Electrostatic energy          :        -603.75039207 Ha      -16428.88406071 eV
  | Energy correction for multipole
  | error in Hartree potential    :           0.01165317 Ha           0.31709895 eV
  | Sum of eigenvalues per atom                           :        -388.46968657 eV
  | Total energy (T->0) per atom                          :        -677.30396393 eV  <-- do not rely on this value for anything but (periodic) metals
  | Electronic free energy per atom                       :        -677.30396393 eV

  Self-consistency convergence accuracy:
  | Change of charge density      :  0.5809E+00
  | Change of sum of eigenvalues  :  0.8940E+02 eV
  | Change of total energy        :  0.4835E+01 eV

  End self-consistency iteration #     1       :  max(cpu_time)    wall_clock(cpu1)
  | Time for this iteration                    :        1.200 s           1.202 s
  | Charge density update                      :        0.395 s           0.395 s
  | Density mixing                             :        0.006 s           0.006 s
  | Hartree multipole update                   :        0.009 s           0.009 s
  | Hartree multipole summation                :        0.285 s           0.285 s
  | Integration                                :        0.504 s           0.504 s
  | Solution of K.-S. eqns.                    :        0.002 s           0.002 s
  | Total energy evaluation                    :        0.000 s           0.000 s

  Partial memory accounting:
  | Current value for overall tracked memory usage on task 0  :           0.165 MB
  | Peak value for overall tracked memory usage on task 0     :           0.691 MB after allocating gradient_basis_wave
  | Largest tracked array allocation on task 0 so far         :           0.394 MB  when allocating gradient_basis_wave
  Note:  These values currently only include a subset of arrays which are explicitly tracked.
  The "true" memory usage will be greater.
------------------------------------------------------------

------------------------------------------------------------
          Begin self-consistency iteration #    2

  Date     :  20200710, Time     :  151615.076
------------------------------------------------------------
  Evaluating new KS density.
  Integration grid: deviation in total charge (<rho> - N_e) =  -1.421085E-14
  Pulay mixing of updated and previous charge densities.

  Evaluating partitioned Hartree potential by multipole expansion.
  | Analytical far-field extrapolation by fixed multipoles:
  | Hartree multipole sum: apparent total charge =  -0.331642E-03
  Summing up the Hartree potential.
  Time summed over all CPUs for potential: real work        0.286 s, elapsed        0.286 s
  | RMS charge density error from multipole expansion :   0.140116E-01

  Integrating Hamiltonian matrix: batch-based integration.
  Time summed over all CPUs for integration: real work        0.508 s, elapsed        0.508 s

  Updating Kohn-Sham eigenvalues and eigenvectors using ELSI and the ELPA eigensolver.
  Finished Cholesky decomposition
  | Time :     0.000 s
  Finished transformation to standard eigenproblem
  | Time :     0.000 s
  Starting LAPACK eigensolver
  Finished solving standard eigenproblem
  | Time :     0.001 s
  Finished back-transformation of eigenvectors
  | Time :     0.000 s

  Obtaining occupation numbers and chemical potential using ELSI.
  | Chemical potential (Fermi level):    -3.35723100eV
  Highest occupied state (VBM) at     -6.83801943 eV
  | Occupation number:      2.00000000

  Lowest unoccupied state (CBM) at    -1.91741835 eV
  | Occupation number:      0.00000000

  Overall HOMO-LUMO gap:      4.92060108 eV.

  Checking to see if s.c.f. parameters should be adjusted.

  Total energy components:
  | Sum of eigenvalues            :        -182.14145210 Ha       -4956.32108640 eV
  | XC energy correction          :         -42.48217545 Ha       -1155.99881047 eV
  | XC potential correction       :          54.62154586 Ha        1486.32788638 eV
  | Free-atom electrostatic energy:        -146.81855009 Ha       -3995.13601818 eV
  | Hartree energy correction     :          -6.67918071 Ha        -181.74975439 eV
  | vdW energy correction         :           0.00000000 Ha           0.00000000 eV
  | Entropy correction            :           0.00000000 Ha           0.00000000 eV
  | ---------------------------
  | Total energy                  :        -323.49981248 Ha       -8802.87778305 eV
  | Total energy, T -> 0          :        -323.49981248 Ha       -8802.87778305 eV  <-- do not rely on this value for anything but (periodic) metals
  | Electronic free energy        :        -323.49981248 Ha       -8802.87778305 eV

  Derived energy quantities:
  | Kinetic energy                :         323.60097967 Ha        8805.63068250 eV
  | Electrostatic energy          :        -604.61861671 Ha      -16452.50965508 eV
  | Energy correction for multipole
  | error in Hartree potential    :           0.02552609 Ha           0.69460019 eV
  | Sum of eigenvalues per atom                           :        -381.25546818 eV
  | Total energy (T->0) per atom                          :        -677.14444485 eV  <-- do not rely on this value for anything but (periodic) metals
  | Electronic free energy per atom                       :        -677.14444485 eV

  Self-consistency convergence accuracy:
  | Change of charge density      :  0.3635E+00
  | Change of sum of eigenvalues  :  0.9378E+02 eV
  | Change of total energy        :  0.2074E+01 eV

  End self-consistency iteration #     2       :  max(cpu_time)    wall_clock(cpu1)
  | Time for this iteration                    :        1.205 s           1.207 s
  | Charge density update                      :        0.392 s           0.393 s
  | Density mixing                             :        0.007 s           0.007 s
  | Hartree multipole update                   :        0.009 s           0.009 s
  | Hartree multipole summation                :        0.286 s           0.286 s
  | Integration                                :        0.508 s           0.509 s
  | Solution of K.-S. eqns.                    :        0.002 s           0.002 s
  | Total energy evaluation                    :        0.000 s           0.000 s

  Partial memory accounting:
  | Current value for overall tracked memory usage on task 0  :           0.166 MB
  | Peak value for overall tracked memory usage on task 0     :           0.691 MB after allocating gradient_basis_wave
  | Largest tracked array allocation on task 0 so far         :           0.394 MB  when allocating gradient_basis_wave
  Note:  These values currently only include a subset of arrays which are explicitly tracked.
  The "true" memory usage will be greater.
------------------------------------------------------------

------------------------------------------------------------
          Begin self-consistency iteration #    3

  Date     :  20200710, Time     :  151616.285
------------------------------------------------------------
  Evaluating new KS density.
  Integration grid: deviation in total charge (<rho> - N_e) =   1.421085E-14
  Pulay mixing of updated and previous charge densities.

  Evaluating partitioned Hartree potential by multipole expansion.
  | Analytical far-field extrapolation by fixed multipoles:
  | Hartree multipole sum: apparent total charge =  -0.419343E-03
  Summing up the Hartree potential.
  Time summed over all CPUs for potential: real work        0.283 s, elapsed        0.283 s
  | RMS charge density error from multipole expansion :   0.220828E-01

  Integrating Hamiltonian matrix: batch-based integration.
  Time summed over all CPUs for integration: real work        0.511 s, elapsed        0.511 s

  Updating Kohn-Sham eigenvalues and eigenvectors using ELSI and the ELPA eigensolver.
  Finished Cholesky decomposition
  | Time :     0.000 s
  Finished transformation to standard eigenproblem
  | Time :     0.000 s
  Starting LAPACK eigensolver
  Finished solving standard eigenproblem
  | Time :     0.002 s
  Finished back-transformation of eigenvectors
  | Time :     0.000 s

  Obtaining occupation numbers and chemical potential using ELSI.
  | Chemical potential (Fermi level):    -2.85104502eV
  Highest occupied state (VBM) at     -6.20314319 eV
  | Occupation number:      2.00000000

  Lowest unoccupied state (CBM) at    -1.22310956 eV
  | Occupation number:      0.00000000

  Overall HOMO-LUMO gap:      4.98003363 eV.

  Total energy components:
  | Sum of eigenvalues            :        -180.84683548 Ha       -4921.09277588 eV
  | XC energy correction          :         -42.63436194 Ha       -1160.14001570 eV
  | XC potential correction       :          54.81541369 Ha        1491.60329856 eV
  | Free-atom electrostatic energy:        -146.81855009 Ha       -3995.13601818 eV
  | Hartree energy correction     :          -8.00330324 Ha        -217.78096184 eV
  | vdW energy correction         :           0.00000000 Ha           0.00000000 eV
  | Entropy correction            :           0.00000000 Ha           0.00000000 eV
  | ---------------------------
  | Total energy                  :        -323.48763706 Ha       -8802.54647304 eV
  | Total energy, T -> 0          :        -323.48763706 Ha       -8802.54647304 eV  <-- do not rely on this value for anything but (periodic) metals
  | Electronic free energy        :        -323.48763706 Ha       -8802.54647304 eV

  Derived energy quantities:
  | Kinetic energy                :         323.22872263 Ha        8795.50105299 eV
  | Electrostatic energy          :        -604.08199775 Ha      -16437.90751032 eV
  | Energy correction for multipole
  | error in Hartree potential    :           0.03590346 Ha           0.97698291 eV
  | Sum of eigenvalues per atom                           :        -378.54559814 eV
  | Total energy (T->0) per atom                          :        -677.11895946 eV  <-- do not rely on this value for anything but (periodic) metals
  | Electronic free energy per atom                       :        -677.11895946 eV

  Self-consistency convergence accuracy:
  | Change of charge density      :  0.2036E+00
  | Change of sum of eigenvalues  :  0.3523E+02 eV
  | Change of total energy        :  0.3313E+00 eV

  End self-consistency iteration #     3       :  max(cpu_time)    wall_clock(cpu1)
  | Time for this iteration                    :        1.200 s           1.201 s
  | Charge density update                      :        0.386 s           0.386 s
  | Density mixing                             :        0.009 s           0.009 s
  | Hartree multipole update                   :        0.009 s           0.009 s
  | Hartree multipole summation                :        0.283 s           0.283 s
  | Integration                                :        0.511 s           0.512 s
  | Solution of K.-S. eqns.                    :        0.002 s           0.002 s
  | Total energy evaluation                    :        0.000 s           0.000 s

  Partial memory accounting:
  | Current value for overall tracked memory usage on task 0  :           0.166 MB
  | Peak value for overall tracked memory usage on task 0     :           0.692 MB after allocating gradient_basis_wave
  | Largest tracked array allocation on task 0 so far         :           0.394 MB  when allocating gradient_basis_wave
  Note:  These values currently only include a subset of arrays which are explicitly tracked.
  The "true" memory usage will be greater.
------------------------------------------------------------

------------------------------------------------------------
          Begin self-consistency iteration #    4

  Date     :  20200710, Time     :  151617.488
------------------------------------------------------------
  Evaluating new KS density.
  Integration grid: deviation in total charge (<rho> - N_e) =  -1.421085E-14
  Pulay mixing of updated and previous charge densities.

  Evaluating partitioned Hartree potential by multipole expansion.
  | Analytical far-field extrapolation by fixed multipoles:
  | Hartree multipole sum: apparent total charge =  -0.447722E-03
  Summing up the Hartree potential.
  Time summed over all CPUs for potential: real work        0.284 s, elapsed        0.284 s
  | RMS charge density error from multipole expansion :   0.256530E-01

  Integrating Hamiltonian matrix: batch-based integration.
  Time summed over all CPUs for integration: real work        0.502 s, elapsed        0.502 s

  Updating Kohn-Sham eigenvalues and eigenvectors using ELSI and the ELPA eigensolver.
  Finished Cholesky decomposition
  | Time :     0.000 s
  Finished transformation to standard eigenproblem
  | Time :     0.000 s
  Starting LAPACK eigensolver
  Finished solving standard eigenproblem
  | Time :     0.002 s
  Finished back-transformation of eigenvectors
  | Time :     0.000 s

  Obtaining occupation numbers and chemical potential using ELSI.
  | Chemical potential (Fermi level):    -2.75341155eV
  Highest occupied state (VBM) at     -6.03882893 eV
  | Occupation number:      2.00000000

  Lowest unoccupied state (CBM) at    -1.14075409 eV
  | Occupation number:      0.00000000

  Overall HOMO-LUMO gap:      4.89807484 eV.

  Total energy components:
  | Sum of eigenvalues            :        -180.74918879 Ha       -4918.43567435 eV
  | XC energy correction          :         -42.67069291 Ha       -1161.12863165 eV
  | XC potential correction       :          54.86082566 Ha        1492.83902108 eV
  | Free-atom electrostatic energy:        -146.81855009 Ha       -3995.13601818 eV
  | Hartree energy correction     :          -8.10903003 Ha        -220.65793399 eV
  | vdW energy correction         :           0.00000000 Ha           0.00000000 eV
  | Entropy correction            :           0.00000000 Ha           0.00000000 eV
  | ---------------------------
  | Total energy                  :        -323.48663616 Ha       -8802.51923710 eV
  | Total energy, T -> 0          :        -323.48663616 Ha       -8802.51923710 eV  <-- do not rely on this value for anything but (periodic) metals
  | Electronic free energy        :        -323.48663616 Ha       -8802.51923710 eV

  Derived energy quantities:
  | Kinetic energy                :         322.82164166 Ha        8784.42381606 eV
  | Electrostatic energy          :        -603.63758490 Ha      -16425.81442150 eV
  | Energy correction for multipole
  | error in Hartree potential    :           0.03992788 Ha           1.08649291 eV
  | Sum of eigenvalues per atom                           :        -378.34120572 eV
  | Total energy (T->0) per atom                          :        -677.11686439 eV  <-- do not rely on this value for anything but (periodic) metals
  | Electronic free energy per atom                       :        -677.11686439 eV

  Self-consistency convergence accuracy:
  | Change of charge density      :  0.6766E-01
  | Change of sum of eigenvalues  :  0.2657E+01 eV
  | Change of total energy        :  0.2724E-01 eV

  End self-consistency iteration #     4       :  max(cpu_time)    wall_clock(cpu1)
  | Time for this iteration                    :        1.193 s           1.195 s
  | Charge density update                      :        0.385 s           0.385 s
  | Density mixing                             :        0.010 s           0.011 s
  | Hartree multipole update                   :        0.009 s           0.009 s
  | Hartree multipole summation                :        0.285 s           0.285 s
  | Integration                                :        0.502 s           0.502 s
  | Solution of K.-S. eqns.                    :        0.002 s           0.002 s
  | Total energy evaluation                    :        0.000 s           0.000 s

  Partial memory accounting:
  | Current value for overall tracked memory usage on task 0  :           0.166 MB
  | Peak value for overall tracked memory usage on task 0     :           0.692 MB after allocating gradient_basis_wave
  | Largest tracked array allocation on task 0 so far         :           0.394 MB  when allocating gradient_basis_wave
  Note:  These values currently only include a subset of arrays which are explicitly tracked.
  The "true" memory usage will be greater.
------------------------------------------------------------

------------------------------------------------------------
          Begin self-consistency iteration #    5

  Date     :  20200710, Time     :  151618.685
------------------------------------------------------------
  Evaluating new KS density.
  Integration grid: deviation in total charge (<rho> - N_e) =   3.552714E-14
  Pulay mixing of updated and previous charge densities.

  Evaluating partitioned Hartree potential by multipole expansion.
  | Analytical far-field extrapolation by fixed multipoles:
  | Hartree multipole sum: apparent total charge =  -0.442608E-03
  Summing up the Hartree potential.
  Time summed over all CPUs for potential: real work        0.282 s, elapsed        0.282 s
  | RMS charge density error from multipole expansion :   0.254071E-01

  Integrating Hamiltonian matrix: batch-based integration.
  Time summed over all CPUs for integration: real work        0.498 s, elapsed        0.498 s

  Updating Kohn-Sham eigenvalues and eigenvectors using ELSI and the ELPA eigensolver.
  Finished Cholesky decomposition
  | Time :     0.000 s
  Finished transformation to standard eigenproblem
  | Time :     0.000 s
  Starting LAPACK eigensolver
  Finished solving standard eigenproblem
  | Time :     0.002 s
  Finished back-transformation of eigenvectors
  | Time :     0.000 s

  Obtaining occupation numbers and chemical potential using ELSI.
  | Chemical potential (Fermi level):    -2.79539487eV
  Highest occupied state (VBM) at     -6.12519779 eV
  | Occupation number:      2.00000000

  Lowest unoccupied state (CBM) at    -1.21444026 eV
  | Occupation number:      0.00000000

  Overall HOMO-LUMO gap:      4.91075753 eV.

  Total energy components:
  | Sum of eigenvalues            :        -180.90136175 Ha       -4922.57651113 eV
  | XC energy correction          :         -42.65085828 Ha       -1160.58890391 eV
  | XC potential correction       :          54.83511880 Ha        1492.13950182 eV
  | Free-atom electrostatic energy:        -146.81855009 Ha       -3995.13601818 eV
  | Hartree energy correction     :          -7.95068880 Ha        -216.34924990 eV
  | vdW energy correction         :           0.00000000 Ha           0.00000000 eV
  | Entropy correction            :           0.00000000 Ha           0.00000000 eV
  | ---------------------------
  | Total energy                  :        -323.48634011 Ha       -8802.51118129 eV
  | Total energy, T -> 0          :        -323.48634011 Ha       -8802.51118129 eV  <-- do not rely on this value for anything but (periodic) metals
  | Electronic free energy        :        -323.48634011 Ha       -8802.51118129 eV

  Derived energy quantities:
  | Kinetic energy                :         322.73644883 Ha        8782.10560127 eV
  | Electrostatic energy          :        -603.57193066 Ha      -16424.02787866 eV
  | Energy correction for multipole
  | error in Hartree potential    :           0.03934222 Ha           1.07055628 eV
  | Sum of eigenvalues per atom                           :        -378.65973163 eV
  | Total energy (T->0) per atom                          :        -677.11624471 eV  <-- do not rely on this value for anything but (periodic) metals
  | Electronic free energy per atom                       :        -677.11624471 eV

  Self-consistency convergence accuracy:
  | Change of charge density      :  0.2209E-01
  | Change of sum of eigenvalues  : -0.4141E+01 eV
  | Change of total energy        :  0.8056E-02 eV

  End self-consistency iteration #     5       :  max(cpu_time)    wall_clock(cpu1)
  | Time for this iteration                    :        1.191 s           1.192 s
  | Charge density update                      :        0.389 s           0.389 s
  | Density mixing                             :        0.011 s           0.011 s
  | Hartree multipole update                   :        0.009 s           0.009 s
  | Hartree multipole summation                :        0.282 s           0.282 s
  | Integration                                :        0.498 s           0.498 s
  | Solution of K.-S. eqns.                    :        0.002 s           0.003 s
  | Total energy evaluation                    :        0.000 s           0.000 s

  Partial memory accounting:
  | Current value for overall tracked memory usage on task 0  :           0.166 MB
  | Peak value for overall tracked memory usage on task 0     :           0.692 MB after allocating gradient_basis_wave
  | Largest tracked array allocation on task 0 so far         :           0.394 MB  when allocating gradient_basis_wave
  Note:  These values currently only include a subset of arrays which are explicitly tracked.
  The "true" memory usage will be greater.
------------------------------------------------------------

------------------------------------------------------------
          Begin self-consistency iteration #    6

  Date     :  20200710, Time     :  151619.880
------------------------------------------------------------
  Evaluating new KS density.
  Integration grid: deviation in total charge (<rho> - N_e) =   4.973799E-14
  Pulay mixing of updated and previous charge densities.

  Evaluating partitioned Hartree potential by multipole expansion.
  | Analytical far-field extrapolation by fixed multipoles:
  | Hartree multipole sum: apparent total charge =  -0.444138E-03
  Summing up the Hartree potential.
  Time summed over all CPUs for potential: real work        0.281 s, elapsed        0.281 s
  | RMS charge density error from multipole expansion :   0.257614E-01

  Integrating Hamiltonian matrix: batch-based integration.
  Time summed over all CPUs for integration: real work        0.515 s, elapsed        0.515 s

  Updating Kohn-Sham eigenvalues and eigenvectors using ELSI and the ELPA eigensolver.
  Finished Cholesky decomposition
  | Time :     0.000 s
  Finished transformation to standard eigenproblem
  | Time :     0.000 s
  Starting LAPACK eigensolver
  Finished solving standard eigenproblem
  | Time :     0.002 s
  Finished back-transformation of eigenvectors
  | Time :     0.000 s

  Obtaining occupation numbers and chemical potential using ELSI.
  | Chemical potential (Fermi level):    -2.79914823eV
  Highest occupied state (VBM) at     -6.11848623 eV
  | Occupation number:      2.00000000

  Lowest unoccupied state (CBM) at    -1.24812144 eV
  | Occupation number:      0.00000000

  Overall HOMO-LUMO gap:      4.87036479 eV.

  Total energy components:
  | Sum of eigenvalues            :        -180.94280843 Ha       -4923.70433275 eV
  | XC energy correction          :         -42.64558476 Ha       -1160.44540421 eV
  | XC potential correction       :          54.82824200 Ha        1491.95237441 eV
  | Free-atom electrostatic energy:        -146.81855009 Ha       -3995.13601818 eV
  | Hartree energy correction     :          -7.90757470 Ha        -215.17605553 eV
  | vdW energy correction         :           0.00000000 Ha           0.00000000 eV
  | Entropy correction            :           0.00000000 Ha           0.00000000 eV
  | ---------------------------
  | Total energy                  :        -323.48627598 Ha       -8802.50943625 eV
  | Total energy, T -> 0          :        -323.48627598 Ha       -8802.50943625 eV  <-- do not rely on this value for anything but (periodic) metals
  | Electronic free energy        :        -323.48627598 Ha       -8802.50943625 eV

  Derived energy quantities:
  | Kinetic energy                :         322.64412201 Ha        8779.59326081 eV
  | Electrostatic energy          :        -603.48481324 Ha      -16421.65729285 eV
  | Energy correction for multipole
  | error in Hartree potential    :           0.03950353 Ha           1.07494584 eV
  | Sum of eigenvalues per atom                           :        -378.74648713 eV
  | Total energy (T->0) per atom                          :        -677.11611048 eV  <-- do not rely on this value for anything but (periodic) metals
  | Electronic free energy per atom                       :        -677.11611048 eV

  Self-consistency convergence accuracy:
  | Change of charge density      :  0.1086E-01
  | Change of sum of eigenvalues  : -0.1128E+01 eV
  | Change of total energy        :  0.1745E-02 eV

  End self-consistency iteration #     6       :  max(cpu_time)    wall_clock(cpu1)
  | Time for this iteration                    :        1.207 s           1.211 s
  | Charge density update                      :        0.388 s           0.390 s
  | Density mixing                             :        0.012 s           0.012 s
  | Hartree multipole update                   :        0.009 s           0.009 s
  | Hartree multipole summation                :        0.282 s           0.282 s
  | Integration                                :        0.515 s           0.515 s
  | Solution of K.-S. eqns.                    :        0.002 s           0.003 s
  | Total energy evaluation                    :        0.000 s           0.000 s

  Partial memory accounting:
  | Current value for overall tracked memory usage on task 0  :           0.166 MB
  | Peak value for overall tracked memory usage on task 0     :           0.692 MB after allocating gradient_basis_wave
  | Largest tracked array allocation on task 0 so far         :           0.394 MB  when allocating gradient_basis_wave
  Note:  These values currently only include a subset of arrays which are explicitly tracked.
  The "true" memory usage will be greater.
------------------------------------------------------------

------------------------------------------------------------
          Begin self-consistency iteration #    7

  Date     :  20200710, Time     :  151621.093
------------------------------------------------------------
  Evaluating new KS density.
  Integration grid: deviation in total charge (<rho> - N_e) =  -7.105427E-15
  Pulay mixing of updated and previous charge densities.

  Evaluating partitioned Hartree potential by multipole expansion.
  | Analytical far-field extrapolation by fixed multipoles:
  | Hartree multipole sum: apparent total charge =  -0.444973E-03
  Summing up the Hartree potential.
  Time summed over all CPUs for potential: real work        0.283 s, elapsed        0.283 s
  | RMS charge density error from multipole expansion :   0.258998E-01

  Integrating Hamiltonian matrix: batch-based integration.
  Time summed over all CPUs for integration: real work        0.497 s, elapsed        0.497 s

  Updating Kohn-Sham eigenvalues and eigenvectors using ELSI and the ELPA eigensolver.
  Finished Cholesky decomposition
  | Time :     0.000 s
  Finished transformation to standard eigenproblem
  | Time :     0.000 s
  Starting LAPACK eigensolver
  Finished solving standard eigenproblem
  | Time :     0.001 s
  Finished back-transformation of eigenvectors
  | Time :     0.000 s

[...]
  |   Hirshfeld dipole moment :      0.05822229
  |   Hirshfeld second moments:      0.01269334      -0.02640645      -0.01437910
  |                                 -0.02640645      -0.02446394       0.00503634
  |                                 -0.01437910       0.00503634      -0.01895930
  ----------------------------------------------------------------------
  | Atom    12: O
  |   Hirshfeld charge        :     -0.14040732
  |   Free atom volume        :     23.61338643
  |   Hirshfeld volume        :     20.93443946
  |   Hirshfeld dipole vector :      0.02373477       0.03466497      -0.01198108
  |   Hirshfeld dipole moment :      0.04368690
  |   Hirshfeld second moments:      0.05483943      -0.01385859      -0.00911931
  |                                 -0.01385859       0.03672509       0.02447213
  |                                 -0.00911931       0.02447213       0.08542478
  ----------------------------------------------------------------------
  | Atom    13: H
  |   Hirshfeld charge        :      0.16037115
  |   Free atom volume        :      9.95071624
  |   Hirshfeld volume        :      6.70480697
  |   Hirshfeld dipole vector :      0.04127608      -0.02356031      -0.08797271
  |   Hirshfeld dipole moment :      0.09999000
  |   Hirshfeld second moments:      0.11496485      -0.01153623       0.01284026
  |                                 -0.01153623       0.08780598       0.02493275
  |                                  0.01284026       0.02493275       0.09516891
  ----------------------------------------------------------------------


  Total energy components:
  | Sum of eigenvalues            :        -180.93577579 Ha       -4923.51296488 eV
  | XC energy correction          :         -42.64335458 Ha       -1160.38471788 eV
  | XC potential correction       :          54.82542580 Ha        1491.87574172 eV
  | Free-atom electrostatic energy:        -146.81855009 Ha       -3995.13601818 eV
  | Hartree energy correction     :          -7.91400173 Ha        -215.35094413 eV
  | vdW energy correction         :          -0.00321481 Ha          -0.08747933 eV
  | Entropy correction            :           0.00000000 Ha           0.00000000 eV
  | ---------------------------
  | Total energy                  :        -323.48947121 Ha       -8802.59638268 eV
  | Total energy, T -> 0          :        -323.48947121 Ha       -8802.59638268 eV  <-- do not rely on this value for anything but (periodic) metals
  | Electronic free energy        :        -323.48947121 Ha       -8802.59638268 eV

  Derived energy quantities:
  | Kinetic energy                :         322.60752824 Ha        8778.59749351 eV
  | Electrostatic energy          :        -603.45043006 Ha      -16420.72167897 eV
  | Energy correction for multipole
  | error in Hartree potential    :           0.03955353 Ha           1.07630639 eV
  | Sum of eigenvalues per atom                           :        -378.73176653 eV
  | Total energy (T->0) per atom                          :        -677.12279867 eV  <-- do not rely on this value for anything but (periodic) metals
  | Electronic free energy per atom                       :        -677.12279867 eV

  atomic forces [eV/Ang]:
  -----------------------
  atom #    1
   Hellmann-Feynman              :  0.709107E+00  0.238715E+00  0.149641E+01
   Ionic forces                  :  0.000000E+00  0.000000E+00  0.000000E+00
   Multipole                     : -0.384036E-01  0.281632E+00 -0.289146E+00
   Pulay + GGA                   : -0.111032E+01 -0.175641E-01 -0.150455E+01
   Van der Waals                 :  0.226542E-02  0.143122E-02 -0.110614E-02
   ----------------------------------------------------------------
   Total forces(   1)            : -0.437355E+00  0.504215E+00 -0.298391E+00
  atom #    2
   Hellmann-Feynman              :  0.351758E+00  0.648604E-01  0.340278E-01
   Ionic forces                  :  0.000000E+00  0.000000E+00  0.000000E+00
   Multipole                     :  0.160066E+00  0.361107E-02 -0.339222E-01
   Pulay + GGA                   : -0.153912E+00  0.442970E-02 -0.222094E-02
   Van der Waals                 :  0.696630E-02 -0.494278E-02 -0.586041E-02
   ----------------------------------------------------------------
   Total forces(   2)            :  0.364878E+00  0.679584E-01 -0.797570E-02
  atom #    3
   Hellmann-Feynman              :  0.824687E+01 -0.483481E+01 -0.503606E+01
   Ionic forces                  :  0.000000E+00  0.000000E+00  0.000000E+00
   Multipole                     : -0.176123E+00  0.152290E+00 -0.102432E+01
   Pulay + GGA                   : -0.743964E+01  0.407932E+01  0.647505E+01
   Van der Waals                 :  0.356492E-02 -0.481439E-02 -0.844211E-02
   ----------------------------------------------------------------
   Total forces(   3)            :  0.634672E+00 -0.608017E+00  0.406224E+00
  atom #    4
   Hellmann-Feynman              : -0.482176E+00  0.504501E+00 -0.107946E+00
   Ionic forces                  :  0.000000E+00  0.000000E+00  0.000000E+00
   Multipole                     : -0.936937E-01 -0.381272E-01 -0.509294E-01
   Pulay + GGA                   :  0.143491E+00  0.182051E+00 -0.305331E-01
   Van der Waals                 : -0.317625E-03  0.136031E-02 -0.579447E-03
   ----------------------------------------------------------------
   Total forces(   4)            : -0.432696E+00  0.649786E+00 -0.189988E+00
  atom #    5
   Hellmann-Feynman              : -0.222701E+00  0.100975E+00 -0.160497E+00
   Ionic forces                  :  0.000000E+00  0.000000E+00  0.000000E+00
   Multipole                     : -0.636296E-01  0.443280E-01 -0.707252E-01
   Pulay + GGA                   :  0.120393E+00 -0.214419E+00  0.174202E-01
   Van der Waals                 : -0.173018E-02 -0.901978E-02 -0.594908E-02
   ----------------------------------------------------------------
   Total forces(   5)            : -0.167668E+00 -0.781356E-01 -0.219751E+00
  atom #    6
   Hellmann-Feynman              : -0.420816E-01 -0.690430E+00  0.546936E+00
   Ionic forces                  :  0.000000E+00  0.000000E+00  0.000000E+00
   Multipole                     : -0.125394E+00  0.582262E+00  0.239973E+00
   Pulay + GGA                   :  0.329140E+00 -0.368751E+00 -0.468186E+00
   Van der Waals                 : -0.162983E-02  0.749259E-02  0.164827E-02
   ----------------------------------------------------------------
   Total forces(   6)            :  0.160035E+00 -0.469427E+00  0.320371E+00
  atom #    7
   Hellmann-Feynman              : -0.225417E+00 -0.590473E-01 -0.276161E-01
   Ionic forces                  :  0.000000E+00  0.000000E+00  0.000000E+00
   Multipole                     : -0.117739E+00  0.484870E-01  0.266898E-01
   Pulay + GGA                   :  0.109818E+00 -0.157947E-02  0.127556E-01
   Van der Waals                 : -0.361426E-02  0.167697E-02  0.769501E-02
   ----------------------------------------------------------------
   Total forces(   7)            : -0.236952E+00 -0.104629E-01  0.195243E-01
  atom #    8
   Hellmann-Feynman              :  0.914214E-01  0.400206E-01  0.185815E+00
   Ionic forces                  :  0.000000E+00  0.000000E+00  0.000000E+00
   Multipole                     :  0.138870E-01  0.620270E-01  0.122670E+00
   Pulay + GGA                   : -0.490540E-01 -0.473073E-01 -0.112519E+00
   Van der Waals                 : -0.295429E-02  0.113329E-01  0.467798E-03
   ----------------------------------------------------------------
   Total forces(   8)            :  0.533001E-01  0.660733E-01  0.196434E+00
  atom #    9
   Hellmann-Feynman              :  0.136316E+00  0.483222E-01 -0.208594E+00
   Ionic forces                  :  0.000000E+00  0.000000E+00  0.000000E+00
   Multipole                     :  0.171435E-01  0.131080E+00 -0.732236E-02
   Pulay + GGA                   : -0.263621E-01 -0.623857E-01  0.852753E-01
   Van der Waals                 : -0.148253E-02  0.576549E-02  0.758615E-02
   ----------------------------------------------------------------
   Total forces(   9)            :  0.125615E+00  0.122782E+00 -0.123055E+00
  atom #   10
   Hellmann-Feynman              :  0.311619E+01  0.437928E+01  0.213899E+01
   Ionic forces                  :  0.000000E+00  0.000000E+00  0.000000E+00
   Multipole                     : -0.228895E-01 -0.114469E-01  0.247539E+00
   Pulay + GGA                   : -0.181755E+01 -0.272995E+01 -0.137628E+00
   Van der Waals                 :  0.312401E-02 -0.106194E-01 -0.144396E-02
   ----------------------------------------------------------------
   Total forces(  10)            :  0.127888E+01  0.162726E+01  0.224746E+01
  atom #   11
   Hellmann-Feynman              :  0.409909E+01 -0.247681E+01  0.140225E+02
   Ionic forces                  :  0.000000E+00  0.000000E+00  0.000000E+00
   Multipole                     :  0.238765E+00 -0.591727E+00  0.751559E+00
   Pulay + GGA                   : -0.391856E+01  0.387400E+01 -0.137951E+02
   Van der Waals                 : -0.278681E-02 -0.109319E-01  0.702094E-02
   ----------------------------------------------------------------
   Total forces(  11)            :  0.416509E+00  0.794533E+00  0.985984E+00
  atom #   12
   Hellmann-Feynman              : -0.106063E+02 -0.101256E+02  0.180943E+01
   Ionic forces                  :  0.000000E+00  0.000000E+00  0.000000E+00
   Multipole                     : -0.775427E+00 -0.159770E+01  0.287877E-01
   Pulay + GGA                   :  0.102051E+02  0.969591E+01 -0.404269E+01
   Van der Waals                 :  0.490042E-03  0.687894E-02  0.398170E-02
   ----------------------------------------------------------------
   Total forces(  12)            : -0.117609E+01 -0.202046E+01 -0.220050E+01
  atom #   13
   Hellmann-Feynman              : -0.532723E+00 -0.567051E+00 -0.141935E+01
   Ionic forces                  :  0.000000E+00  0.000000E+00  0.000000E+00
   Multipole                     :  0.787119E-01  0.753451E-02 -0.106964E+00
   Pulay + GGA                   : -0.127972E+00 -0.909131E-01  0.387580E+00
   Van der Waals                 : -0.189518E-02  0.438978E-02 -0.501873E-02
   ----------------------------------------------------------------
   Total forces(  13)            : -0.583878E+00 -0.646039E+00 -0.114375E+01

  Timings for VdW correction (Tkatchenko-Scheffler 2009 or later):
  | CPU time:        0.091 s, Wall clock time:        0.092 s.
  Removing unitary transformations (pure translations, rotations) from forces on atoms.
  Atomic forces before filtering:
  | Net force on center of mass :  -0.747228E-03  0.641779E-04 -0.740889E-02 eV/A
  | Net torque on center of mass:   0.932773E-02  0.196512E-02  0.451156E-02 eV
  Atomic forces after filtering:
  | Net force on center of mass :   0.000000E+00 -0.356812E-15  0.356812E-15 eV/A
  | Net torque on center of mass:  -0.151054E-14  0.708063E-15 -0.377634E-15 eV

  Energy and forces in a compact form:
  | Total energy uncorrected      :         -0.880259638267999E+04 eV
  | Total energy corrected        :         -0.880259638267999E+04 eV  <-- do not rely on this value for anything but (periodic) metals
  | Electronic free energy        :         -0.880259638267999E+04 eV
  Total atomic forces (unitary forces cleaned) [eV/Ang]:
  |   1         -0.437280789307596E+00          0.504109900563888E+00         -0.297780208275425E+00
  |   2          0.364952109106361E+00          0.676549760096253E-01         -0.723710606469844E-02
  |   3          0.634912192720202E+00         -0.608387522993175E+00          0.406778811008649E+00
  |   4         -0.432561368304177E+00          0.649543390631655E+00         -0.189371513535167E+00
  |   5         -0.167226060862862E+00         -0.785213592199321E-01         -0.219465271429272E+00
  |   6          0.160253687167818E+00         -0.469258849145369E+00          0.320608232052772E+00
  |   7         -0.236729854770089E+00         -0.100926456097271E-01          0.196266561142868E-01
  |   8          0.534004013769907E-01          0.664329956740469E-01          0.196710483623404E+00
  |   9          0.126056510755894E+00          0.122757925618607E+00         -0.123000086803412E+00
  |  10          0.127863392102690E+01          0.162741360373915E+01          0.224834541330413E+01
  |  11          0.416078595627839E+00          0.794917750396057E+00          0.986974337612514E+00
  |  12         -0.117640966493912E+01         -0.202034892066960E+01         -0.219948173078208E+01
  |  13         -0.584079679598161E+00         -0.646221244995232E+00         -0.114270801682570E+01

  ------------------------------------ 
  Start decomposition of the XC Energy 
  ------------------------------------ 
  X and C from original XC functional choice 
  Hartree-Fock Energy :          0.000000000 Ha              0.000000000 eV
  X Energy            :        -41.040829012 Ha          -1116.777778445 eV
  C Energy            :         -1.602525569 Ha            -43.606939438 eV
  Total XC Energy     :        -42.643354581 Ha          -1160.384717883 eV
  ------------------------------------ 
  LDA X and C from self-consistent density 
  X Energy LDA        :        -37.262406151 Ha          -1013.961661177 eV
  C Energy LDA        :         -3.139156549 Ha            -85.420795851 eV
  ------------------------------------ 
  End decomposition of the XC Energy 
  ------------------------------------ 

------------------------------------------------------------

------------------------------------------------------------------------------
  Final output of selected total energy values:

  The following output summarizes some interesting total energy values
  at the end of a run (AFTER all relaxation, molecular dynamics, etc.).

  | Total energy of the DFT / Hartree-Fock s.c.f. calculation      :          -8802.596382680 eV
  | Final zero-broadening corrected energy (caution - metals only) :          -8802.596382680 eV
  | For reference only, the value of 1 Hartree used in FHI-aims is :             27.211384500 eV

  Before relying on these values, please be sure to understand exactly which
  total energy value is referred to by a given number. Different objects may
  all carry the same name 'total energy'. Definitions:

  Total energy of the DFT / Hartree-Fock s.c.f. calculation:
  | Note that this energy does not include ANY quantities calculated after the
  | s.c.f. cycle, in particular not ANY RPA, MP2, etc. many-body perturbation terms.

  Final zero-broadening corrected energy:
  | For metallic systems only, a broadening of the occupation numbers at the Fermi
  | level can be extrapolated back to zero broadening by an electron-gas inspired
  | formula. For all systems that are not real metals, this value can be
  | meaningless and should be avoided.

------------------------------------------------------------------------------
  Methods described in the following list of references were used in this FHI-aims run.
  If you publish the results, please make sure to cite these reference if they apply.
  FHI-aims is an academic code, and for our developers (often, Ph.D. students
  and postdocs), scientific credit in the community is essential.
  Thank you for helping us!

  For any use of FHI-aims, please cite:

    Volker Blum, Ralf Gehrke, Felix Hanke, Paula Havu, Ville Havu,
    Xinguo Ren, Karsten Reuter, and Matthias Scheffler
    'Ab initio molecular simulations with numeric atom-centered orbitals'
    Computer Physics Communications 180, 2175-2196 (2009)
    http://dx.doi.org/10.1016/j.cpc.2009.06.022


  The scalable eigensolver library ELPA was used in your run.
  ELPA is essential especially for large systems on hundreds or thousands of CPUs.
  For ELPA, please cite:

    Andreas Marek, Volker Blum, Rainer Johanni, Ville Havu, Bruno Lang,
    Thomas Auckenthaler, Alexander Heinecke, Hans-Joachim Bungartz, and Hermann Lederer,
    'The ELPA Library - Scalable Parallel Eigenvalue Solutions
    for Electronic Structure Theory and Computational Science'
    The Journal of Physics: Condensed Matter 26, 213201 (2014).
    http://dx.doi.org/10.1088/0953-8984/26/21/213201


  The ELSI infrastructure was used in your run to solve the Kohn-Sham electronic structure.
  Please check out http://elsi-interchange.org to learn more.
  If scalability is important for your project, please acknowledge ELSI by citing:

    V. W-z. Yu, F. Corsetti, A. Garcia, W. P. Huhn, M. Jacquelin, W. Jia,
    B. Lange, L. Lin, J. Lu, W. Mi, A. Seifitokaldani, A. Vazquez-Mayagoitia,
    C. Yang, H. Yang, and V. Blum
    'ELSI: A unified software interface for Kohn-Sham electronic structure solvers'
    Computer Physics Communications 222, 267-285 (2018).
    http://dx.doi.org/10.1016/j.cpc.2017.09.007


  For the real-space grid partitioning and parallelization used in this calculation, please cite:

    Ville Havu, Volker Blum, Paula Havu, and Matthias Scheffler,
    'Efficient O(N) integration for all-electron electronic structure calculation'
    'using numerically tabulated basis functions'
    Journal of Computational Physics 228, 8367-8379 (2009).
    http://dx.doi.org/10.1016/j.jcp.2009.08.008

  Of course, there are many other important community references, e.g., those cited in the
  above references. Our list is limited to references that describe implementations in the
  FHI-aims code. The reason is purely practical (length of this list) - please credit others as well.

------------------------------------------------------------
          Leaving FHI-aims.
          Date     :  20200710, Time     :  151635.502

          Computational steps:
          | Number of self-consistency cycles          :           16
          | Number of SCF (re)initializations          :            1

          Detailed time accounting                     :  max(cpu_time)    wall_clock(cpu1)
          | Total time                                 :       22.887 s          22.965 s
          | Preparation time                           :        0.148 s           0.149 s
          | Boundary condition initalization           :        0.000 s           0.000 s
          | Grid partitioning                          :        0.113 s           0.113 s
          | Preloading free-atom quantities on grid    :        0.002 s           0.002 s
          | Free-atom superposition energy             :        0.084 s           0.084 s
          | Total time for integrations                :        8.734 s           8.744 s
          | Total time for solution of K.-S. equations :        0.037 s           0.038 s
          | Total time for density & force components  :        7.180 s           7.201 s
          | Total time for mixing                      :        0.221 s           0.227 s
          | Total time for Hartree multipole update    :        0.142 s           0.145 s
          | Total time for Hartree multipole sum       :        5.822 s           5.830 s
          | Total time for total energy evaluation     :        0.003 s           0.003 s
          | Total time for vdW correction              :        0.091 s           0.092 s

          Partial memory accounting:
          | Residual value for overall tracked memory usage across tasks :           0.000 MB (should be 0.000 MB)
          | Peak values for overall tracked memory usage (after allocating hessian_basis_wave):
          |   Minimum:        1.612 MB (on task 1)
          |   Maximum:        1.612 MB (on task 1)
          |   Average:        1.612 MB
          | Largest tracked array allocation (hessian_basis_wave):
          |   Minimum:        0.788 MB (on task 1)
          |   Maximum:        0.788 MB (on task 1)
          |   Average:        0.788 MB
          Note:  These values currently only include a subset of arrays which are explicitly tracked.
          The "true" memory usage will be greater.

          Have a nice day.
------------------------------------------------------------
