  MPI-parallelism will be employed.
------------------------------------------------------------
          Invoking FHI-aims ...
          Version 171221_1
          Compiled on 2019/09/09 at 14:39:39 on host puhti-login2.bullx.

          When using FHI-aims, please cite the following reference:

          Volker Blum, Ralf Gehrke, Felix Hanke, Paula Havu,
          Ville Havu, Xinguo Ren, Karsten Reuter, and Matthias Scheffler,
          'Ab Initio Molecular Simulations with Numeric Atom-Centered Orbitals',
          Computer Physics Communications 180, 2175-2196 (2009)

          For any questions about FHI-aims, please visit the aimsclub website
          with its forums and wiki. Contributions to both the forums and the
          wiki are warmly encouraged - they are for you, and everyone is welcome there.

------------------------------------------------------------



  Date     :  20200710, Time     :  144643.984
  Time zero on CPU 1             :   0.130160000000000E-01  s.
  Internal wall clock time zero  :           363624403.984  s.

  FHI-aims created a unique identifier for this run for later identification
  aims_uuid : 919DCCCC-0C04-48E3-A0CF-A9F8E1667C94

  Using        1 parallel tasks.
  Task        0 on host r18c43.bullx reporting.

  Performing system and environment tests:
  | Environment variable OMP_NUM_THREADS correctly set to 1.
  | Stacksize not measured: no C compiler
  | Checking for scalapack...
  | Testing pdtran()...
  | All pdtran() tests passed.

  Obtaining array dimensions for all initial allocations:
  
  -----------------------------------------------------------------------
  Parsing control.in (first pass over file, find array dimensions only).
  The contents of control.in will be repeated verbatim below
  unless switched off by setting 'verbatim_writeout .false.' .
  in the first line of control.in .
  -----------------------------------------------------------------------
  
  #########################################################################################
  #
  #  Volker Blum, FHI 2009 : Test run input file control.in for simple H2O
  #
  #########################################################################################
  #
  #  Physical model
  #
    xc                 pbe
    vdw_correction_hirshfeld
    spin               none
    relativistic       none
    charge             0.
  #
  #  SCF convergence
  #
    occupation_type    gaussian 0.01
    mixer              pulay
      n_max_pulay        10
      charge_mix_param   0.2
    sc_accuracy_rho    1E-5
    sc_accuracy_eev    1E-3
    sc_accuracy_etot   1E-6
    sc_accuracy_forces 1E-4
    sc_iter_limit      100
  #
  #  Relaxation
  #
  #  relax_geometry   bfgs 1.e-3
  #
  ################################################################################
  #
  #  FHI-aims code project
  #  VB, Fritz-Haber Institut, 2009
  #
  #  Suggested "light" defaults for H atom (to be pasted into control.in file)
  #  Be sure to double-check any results obtained with these settings for post-processing,
  #  e.g., with the "tight" defaults and larger basis sets.
  #
  ################################################################################
    species        H
  #     global species definitions
      nucleus             1
      mass                1.00794
  #
      l_hartree           4
  #
      cut_pot             3.5  1.5  1.0
      basis_dep_cutoff    1e-4
  #
      radial_base         24 5.0
      radial_multiplier   1
      angular_grids       specified
        division   0.2421   50
        division   0.3822  110
        division   0.4799  194
        division   0.5341  302
  #      division   0.5626  434
  #      division   0.5922  590
  #      division   0.6542  770
  #      division   0.6868 1202
  #      outer_grid  770
        outer_grid  302
  ################################################################################
  #
  #  Definition of "minimal" basis
  #
  ################################################################################
  #     valence basis states
      valence      1  s   1.
  #     ion occupancy
      ion_occ      1  s   0.5
  ################################################################################
  #
  #  Suggested additional basis functions. For production calculations,
  #  uncomment them one after another (the most important basis functions are
  #  listed first).
  #
  #  Basis constructed for dimers: 0.5 A, 0.7 A, 1.0 A, 1.5 A, 2.5 A
  #
  ################################################################################
  #  "First tier" - improvements: -1014.90 meV to -62.69 meV
       hydro 2 s 2.1
       hydro 2 p 3.5
  #  "Second tier" - improvements: -12.89 meV to -1.83 meV
  #     hydro 1 s 0.85
  #     hydro 2 p 3.7
  #     hydro 2 s 1.2
  #     hydro 3 d 7
  #  "Third tier" - improvements: -0.25 meV to -0.12 meV
  #     hydro 4 f 11.2
  #     hydro 3 p 4.8
  #     hydro 4 d 9
  #     hydro 3 s 3.2
  ################################################################################
  #
  #  FHI-aims code project
  #  VB, Fritz-Haber Institut, 2009
  #
  #  Suggested "light" defaults for C atom (to be pasted into control.in file)
  #  Be sure to double-check any results obtained with these settings for post-processing,
  #  e.g., with the "tight" defaults and larger basis sets.
  #
  ################################################################################
    species        C
  #     global species definitions
      nucleus             6
      mass                12.0107
  #
      l_hartree           4
  #
      cut_pot             3.5  1.5  1.0
      basis_dep_cutoff    1e-4
  #
      radial_base         34 5.0
      radial_multiplier   1
      angular_grids specified
        division   0.3326   50
        division   0.5710  110
        division   0.7727  194
        division   0.8772  302
  #      division   0.9334  434
  #      division   0.9625  590
  #      division   0.9924  770
  #      division   1.0230  974
  #      division   1.4589 1202
  #     outer_grid  974
       outer_grid 302
  ################################################################################
  #
  #  Definition of "minimal" basis
  #
  ################################################################################
  #     valence basis states
      valence      2  s   2.
      valence      2  p   2.
  #     ion occupancy
      ion_occ      2  s   1.
      ion_occ      2  p   1.
  ################################################################################
  #
  #  Suggested additional basis functions. For production calculations,
  #  uncomment them one after another (the most important basis functions are
  #  listed first).
  #
  #  Constructed for dimers: 1.0 A, 1.25 A, 1.5 A, 2.0 A, 3.0 A
  #
  ################################################################################
  #  "First tier" - improvements: -1214.57 meV to -155.61 meV
       hydro 2 p 1.7
       hydro 3 d 6
       hydro 2 s 4.9
  #  "Second tier" - improvements: -67.75 meV to -5.23 meV
  #     hydro 4 f 9.8
  #     hydro 3 p 5.2
  #     hydro 3 s 4.3
  #     hydro 5 g 14.4
  #     hydro 3 d 6.2
  #  "Third tier" - improvements: -2.43 meV to -0.60 meV
  #     hydro 2 p 5.6
  #     hydro 2 s 1.4
  #     hydro 3 d 4.9
  #     hydro 4 f 11.2
  #  "Fourth tier" - improvements: -0.39 meV to -0.18 meV
  #     hydro 2 p 2.1
  #     hydro 5 g 16.4
  #     hydro 4 d 13.2
  #     hydro 3 s 13.6
  #     hydro 4 f 17.6
  #  Further basis functions - improvements: -0.08 meV and below
  #     hydro 3 s 2
  #     hydro 3 p 6
  #     hydro 4 d 20
  ################################################################################
  #
  #  FHI-aims code project
  #  VB, Fritz-Haber Institut, 2009
  #
  #  Suggested "light" defaults for N atom (to be pasted into control.in file)
  #  Be sure to double-check any results obtained with these settings for post-processing,
  #  e.g., with the "tight" defaults and larger basis sets.
  #
  ################################################################################
    species        N
  #     global species definitions
      nucleus             7
      mass                14.0067
  #
      l_hartree           4
  #
      cut_pot             3.5  1.5  1.0
      basis_dep_cutoff    1e-4
  #
      radial_base         35 5.0
      radial_multiplier   1
      angular_grids       specified
        division   0.2599   50
        division   0.4601  110
        division   0.5885  194
        division   0.6503  302
  #      division   0.6939  434
  #      division   0.7396  590
  #      division   0.7632  770
  #      division   0.8122  974
  #      division   1.1604 1202
  #      outer_grid  974
        outer_grid  302
  ################################################################################
  #
  #  Definition of "minimal" basis
  #
  ################################################################################
  #     valence basis states
      valence      2  s   2.
      valence      2  p   3.
  #     ion occupancy
      ion_occ      2  s   1.
      ion_occ      2  p   2.
  ################################################################################
  #
  #  Suggested additional basis functions. For production calculations,
  #  uncomment them one after another (the most important basis functions are
  #  listed first).
  #
  #  Constructed for dimers: 1.0 A, 1.1 A, 1.5 A, 2.0 A, 3.0 A
  #
  ################################################################################
  #  "First tier" - improvements: -1193.42 meV to -220.60 meV
       hydro 2 p 1.8
       hydro 3 d 6.8
       hydro 3 s 5.8
  #  "Second tier" - improvements: -80.21 meV to -6.86 meV
  #     hydro 4 f 10.8
  #     hydro 3 p 5.8
  #     hydro 1 s 0.8
  #     hydro 5 g 16
  #     hydro 3 d 4.9
  #  "Third tier" - improvements: -4.29 meV to -0.53 meV
  #     hydro 3 s 16
  #     ionic 2 p auto
  #     hydro 3 d 6.6
  #     hydro 4 f 11.6
  #  "Fourth tier" - improvements: -0.75 meV to -0.25 meV
  #     hydro 2 p 4.5
  #     hydro 2 s 2.4
  #     hydro 5 g 14.4
  #     hydro 4 d 14.4
  #     hydro 4 f 16.8
  # Further basis functions - -0.21 meV and below
  #     hydro 3 p 14.8
  #     hydro 3 s 4.4
  #     hydro 3 d 19.6
  #     hydro 5 g 12.8
  ################################################################################
  #
  #  FHI-aims code project
  #  VB, Fritz-Haber Institut, 2009
  #
  #  Suggested "light" defaults for O atom (to be pasted into control.in file)
  #  Be sure to double-check any results obtained with these settings for post-processing,
  #  e.g., with the "tight" defaults and larger basis sets.
  #
  ################################################################################
    species        O
  #     global species definitions
      nucleus             8
      mass                15.9994
  #
      l_hartree           4
  #
      cut_pot             3.5  1.5  1.0
      basis_dep_cutoff    1e-4
  #
      radial_base         36 5.0
      radial_multiplier   1
       angular_grids specified
        division   0.2659   50
        division   0.4451  110
        division   0.6052  194
        division   0.7543  302
  #      division   0.8014  434
  #      division   0.8507  590
  #      division   0.8762  770
  #      division   0.9023  974
  #      division   1.2339 1202
  #      outer_grid 974
        outer_grid 302
  ################################################################################
  #
  #  Definition of "minimal" basis
  #
  ################################################################################
  #     valence basis states
      valence      2  s   2.
      valence      2  p   4.
  #     ion occupancy
      ion_occ      2  s   1.
      ion_occ      2  p   3.
  ################################################################################
  #
  #  Suggested additional basis functions. For production calculations,
  #  uncomment them one after another (the most important basis functions are
  #  listed first).
  #
  #  Constructed for dimers: 1.0 A, 1.208 A, 1.5 A, 2.0 A, 3.0 A
  #
  ################################################################################
  #  "First tier" - improvements: -699.05 meV to -159.38 meV
       hydro 2 p 1.8
       hydro 3 d 7.6
       hydro 3 s 6.4
  #  "Second tier" - improvements: -49.91 meV to -5.39 meV
  #     hydro 4 f 11.6
  #     hydro 3 p 6.2
  #     hydro 3 d 5.6
  #     hydro 5 g 17.6
  #     hydro 1 s 0.75
  #  "Third tier" - improvements: -2.83 meV to -0.50 meV
  #     ionic 2 p auto
  #     hydro 4 f 10.8
  #     hydro 4 d 4.7
  #     hydro 2 s 6.8
  #  "Fourth tier" - improvements: -0.40 meV to -0.12 meV
  #     hydro 3 p 5
  #     hydro 3 s 3.3
  #     hydro 5 g 15.6
  #     hydro 4 f 17.6
  #     hydro 4 d 14
  # Further basis functions - -0.08 meV and below
  #     hydro 3 s 2.1
  #     hydro 4 d 11.6
  #     hydro 3 p 16
  #     hydro 2 s 17.2
  
  -----------------------------------------------------------------------
  Completed first pass over input file control.in .
  -----------------------------------------------------------------------
  
  
  -----------------------------------------------------------------------
  Parsing geometry.in (first pass over file, find array dimensions only).
  The contents of geometry.in will be repeated verbatim below
  unless switched off by setting 'verbatim_writeout .false.' .
  in the first line of geometry.in .
  -----------------------------------------------------------------------
  
  atom  0.00000 0.00000 0.00000 C
  atom  1.09300 0.00000 0.00000 H
  atom  -0.47961 0.00000 -1.41207 N
  atom  -0.29734 0.91798 -1.81941 H
  atom  0.02248 -0.71975 -1.92780 H
  atom  -0.49584 1.26211 0.72868 C
  atom  -1.58789 1.28919 0.74431 H
  atom  -0.13407 1.27425 1.75947 H
  atom  -0.13407 2.16087 0.22380 H
  atom  -0.39425 -1.28861 0.74398 C
  atom  -0.10189 -1.56493 1.88303 O
  atom  -1.10210 -2.13717 0.06896 O
  atom  -0.63540 -2.06690 -0.78088 H
  
  -----------------------------------------------------------------------
  Completed first pass over input file geometry.in .
  -----------------------------------------------------------------------
  

  Basic array size parameters:
  | Number of species                 :        4
  | Number of atoms                   :       13
  | Max. basis fn. angular momentum   :        2
  | Max. atomic/ionic basis occupied n:        2
  | Max. number of basis fn. types    :        2
  | Max. radial fns per species/type  :        3
  | Max. logarithmic grid size        :     1301
  | Max. radial integration grid size :       36
  | Max. angular integration grid size:      302
  | Max. angular grid division number :        8
  | Radial grid for Hartree potential :     1301
  | Number of spin channels           :        1

------------------------------------------------------------
          Reading file control.in.
------------------------------------------------------------
  XC: Using PBE gradient-corrected functionals.
  Spin treatment: No spin polarisation.
  Non-relativistic treatment of kinetic energy.
  Charge =   0.000000E+00: Neutral system requested explicitly.
  Occupation type: Gaussian broadening, width =   0.100000E-01 eV.
  Using pulay charge density mixing.
  Pulay mixing - number of memorized iterations:   10
  Charge density mixing - mixing parameter:     0.2000
  Convergence accuracy of self-consistent charge density:  0.1000E-04
  Convergence accuracy of sum of eigenvalues:  0.1000E-02
  Convergence accuracy of total energy:  0.1000E-05
  Convergence accuracy of forces:  0.1000E-03
  Maximum number of s.-c. iterations  :   100
 
  Reading configuration options for species H                   .
  | Found nuclear charge :   1.0000
  | Found atomic mass :    1.00794000000000      amu
  | Found l_max for Hartree potential  :   4
  | Found cutoff potl. onset [A], width [A], scale factor :    3.50000    1.50000    1.00000
  | Threshold for basis-dependent cutoff potential is   0.100000E-03
  | Found data for basic radial integration grid :    24 points, outermost radius =    5.000 A
  | Found multiplier for basic radial grid :   1
  | Found angular grid specification: user-specified.
  | Specified grid contains     5 separate shells.
  | Check grid settings after all constraints further below.
  | Found free-atom valence shell :  1 s   1.000
  | No ionic wave fns used. Skipping ion_occ.
  | Found hydrogenic basis function :  2 s   2.100
  | Found hydrogenic basis function :  2 p   3.500
  Species H                   : Missing cutoff potential type.
  Defaulting to exp(1/x)/(1-x)^2 type cutoff potential.
  Species H : No 'logarithmic' tag. Using default grid for free atom:
  | Default logarithmic grid data [bohr] : 0.1000E-03 0.1000E+03 0.1012E+01
  Species H : On-site basis accuracy parameter (for Gram-Schmidt orthonormalisation) not specified.
  Using default value basis_acc =  0.1000000E-03.
  Species H                   : Using default innermost maximum threshold i_radial=  2 for radial functions.
  Species H                   : Default cutoff onset for free atom density etc. : 0.35000000E+01 AA.
  Species H                   : Basic radial grid will be enhanced according to radial_multiplier =   1, to contain    24 grid points.
 
  Reading configuration options for species C                   .
  | Found nuclear charge :   6.0000
  | Found atomic mass :    12.0107000000000      amu
  | Found l_max for Hartree potential  :   4
  | Found cutoff potl. onset [A], width [A], scale factor :    3.50000    1.50000    1.00000
  | Threshold for basis-dependent cutoff potential is   0.100000E-03
  | Found data for basic radial integration grid :    34 points, outermost radius =    5.000 A
  | Found multiplier for basic radial grid :   1
  | Found angular grid specification: user-specified.
  | Specified grid contains     5 separate shells.
  | Check grid settings after all constraints further below.
  | Found free-atom valence shell :  2 s   2.000
  | Found free-atom valence shell :  2 p   2.000
  | No ionic wave fns used. Skipping ion_occ.
  | No ionic wave fns used. Skipping ion_occ.
  | Found hydrogenic basis function :  2 p   1.700
  | Found hydrogenic basis function :  3 d   6.000
  | Found hydrogenic basis function :  2 s   4.900
  Species C                   : Missing cutoff potential type.
  Defaulting to exp(1/x)/(1-x)^2 type cutoff potential.
  Species C : No 'logarithmic' tag. Using default grid for free atom:
  | Default logarithmic grid data [bohr] : 0.1000E-03 0.1000E+03 0.1012E+01
  Species C : On-site basis accuracy parameter (for Gram-Schmidt orthonormalisation) not specified.
  Using default value basis_acc =  0.1000000E-03.
  Species C                   : Using default innermost maximum threshold i_radial=  2 for radial functions.
  Species C                   : Default cutoff onset for free atom density etc. : 0.35000000E+01 AA.
  Species C                   : Basic radial grid will be enhanced according to radial_multiplier =   1, to contain    34 grid points.
 
  Reading configuration options for species N                   .
  | Found nuclear charge :   7.0000
  | Found atomic mass :    14.0067000000000      amu
  | Found l_max for Hartree potential  :   4
  | Found cutoff potl. onset [A], width [A], scale factor :    3.50000    1.50000    1.00000
  | Threshold for basis-dependent cutoff potential is   0.100000E-03
  | Found data for basic radial integration grid :    35 points, outermost radius =    5.000 A
  | Found multiplier for basic radial grid :   1
  | Found angular grid specification: user-specified.
  | Specified grid contains     5 separate shells.
  | Check grid settings after all constraints further below.
  | Found free-atom valence shell :  2 s   2.000
  | Found free-atom valence shell :  2 p   3.000
  | No ionic wave fns used. Skipping ion_occ.
  | No ionic wave fns used. Skipping ion_occ.
  | Found hydrogenic basis function :  2 p   1.800
  | Found hydrogenic basis function :  3 d   6.800
  | Found hydrogenic basis function :  3 s   5.800
  Species N                   : Missing cutoff potential type.
  Defaulting to exp(1/x)/(1-x)^2 type cutoff potential.
  Species N : No 'logarithmic' tag. Using default grid for free atom:
  | Default logarithmic grid data [bohr] : 0.1000E-03 0.1000E+03 0.1012E+01
  Species N : On-site basis accuracy parameter (for Gram-Schmidt orthonormalisation) not specified.
  Using default value basis_acc =  0.1000000E-03.
  Species N                   : Using default innermost maximum threshold i_radial=  2 for radial functions.
  Species N                   : Default cutoff onset for free atom density etc. : 0.35000000E+01 AA.
  Species N                   : Basic radial grid will be enhanced according to radial_multiplier =   1, to contain    35 grid points.
 
  Reading configuration options for species O                   .
  | Found nuclear charge :   8.0000
  | Found atomic mass :    15.9994000000000      amu
  | Found l_max for Hartree potential  :   4
  | Found cutoff potl. onset [A], width [A], scale factor :    3.50000    1.50000    1.00000
  | Threshold for basis-dependent cutoff potential is   0.100000E-03
  | Found data for basic radial integration grid :    36 points, outermost radius =    5.000 A
  | Found multiplier for basic radial grid :   1
  | Found angular grid specification: user-specified.
  | Specified grid contains     5 separate shells.
  | Check grid settings after all constraints further below.
  | Found free-atom valence shell :  2 s   2.000
  | Found free-atom valence shell :  2 p   4.000
  | No ionic wave fns used. Skipping ion_occ.
  | No ionic wave fns used. Skipping ion_occ.
  | Found hydrogenic basis function :  2 p   1.800
  | Found hydrogenic basis function :  3 d   7.600
  | Found hydrogenic basis function :  3 s   6.400
  Species O                   : Missing cutoff potential type.
  Defaulting to exp(1/x)/(1-x)^2 type cutoff potential.
  Species O : No 'logarithmic' tag. Using default grid for free atom:
  | Default logarithmic grid data [bohr] : 0.1000E-03 0.1000E+03 0.1012E+01
  Species O : On-site basis accuracy parameter (for Gram-Schmidt orthonormalisation) not specified.
  Using default value basis_acc =  0.1000000E-03.
  Species O                   : Using default innermost maximum threshold i_radial=  2 for radial functions.
  Species O                   : Default cutoff onset for free atom density etc. : 0.35000000E+01 AA.
  Species O                   : Basic radial grid will be enhanced according to radial_multiplier =   1, to contain    36 grid points.
 
  Finished reading input file 'control.in'. Consistency checks are next.
 
  MPI_IN_PLACE appears to work with this MPI implementation.
  | Keeping use_mpi_in_place .true. (see manual).
  Target number of points in a grid batch is not set. Defaulting to  100
  Method for grid partitioning is not set. Defaulting to parallel hash+maxmin partitioning.
  Batch size limit is not set. Defaulting to    200
  By default, will store active basis functions for each batch.
  If in need of memory, prune_basis_once .false. can be used to disable this option.
  communication_type for Hartree potential was not specified.
  Defaulting to calc_hartree .
  Pulay mixer: Number of initial linear mixing iterations not set.
  Defaulting to    0 iterations.
  Work space size for distributed Hartree potential not set.
  Defaulting to   0.200000E+03 MB.
  Algorithm-dependent basis array size parameters:
  | n_max_pulay                         :       10
  Presetting      1001 iterations before the initial mixing cycle
  is restarted anyway using the sc_init_iter criterion / keyword.
  Presetting a factor      1.000 between actual scf density residual
  and density convergence criterion sc_accuracy_rho below which sc_init_iter
  takes no effect.
  Geometry relaxation not requested: no relaxation will be performed.
  Handling of forces: Unphysical translation and rotation will be removed from forces.
  No accuracy limit for integral partition fn. given. Defaulting to  0.1000E-14.
  No threshold value for u(r) in integrations given. Defaulting to  0.1000E-05.
  No accuracy for occupation numbers given. Defaulting to  0.1000E-12.
  No threshold value for occupation numbers given. Defaulting to  0.0000E+00.
  No accuracy for fermi level given. Defaulting to  0.1000E-19.
  Maximum # of iterations to find E_F not set. Defaulting to  200.
  Preferred method for the eigenvalue solver ('KS_method') not specified in 'control.in'.
  Defaulting to serial version, 'lapack_fast'.
  Will not use alltoall communication since running on < 1024 CPUs.
  Threshold for basis singularities not set.
  Default threshold for basis singularities:  0.1000E-04
  partition_type (choice of integration weights) for integrals was not specified.
  | Using a version of the partition function of Stratmann and coworkers ('stratmann_smoother').
  | At each grid point, the set of atoms used to build the partition table is smoothly restricted to
  | only those atoms whose free-atom density would be non-zero at that grid point.
  Partitioning for Hartree potential was not defined. Using partition_type for integrals.
  | Adjusted default value of keyword multip_moments_threshold to:       0.10000000E-11
  | This value may affect high angular momentum components of the Hartree potential in periodic systems.
  No q(lm)/r^(l+1) cutoff set for long-range Hartree potential.
  | Using default value of  0.100000E-09 .
  | Verify using the multipole_threshold keyword.
  Defaulting to new monopole extrapolation.
  Density update method: automatic selection selected.
------------------------------------------------------------


------------------------------------------------------------
          Reading geometry description geometry.in.
------------------------------------------------------------
  Input structure read successfully.
  The structure contains       13 atoms,  and a total of         48.000 electrons.

  Input geometry:
  | No unit cell requested.
  | Atomic structure:
  |       Atom                x [A]            y [A]            z [A]
  |    1: Species C             0.00000000        0.00000000        0.00000000
  |    2: Species H             1.09300000        0.00000000        0.00000000
  |    3: Species N            -0.47961000        0.00000000       -1.41207000
  |    4: Species H            -0.29734000        0.91798000       -1.81941000
  |    5: Species H             0.02248000       -0.71975000       -1.92780000
  |    6: Species C            -0.49584000        1.26211000        0.72868000
  |    7: Species H            -1.58789000        1.28919000        0.74431000
  |    8: Species H            -0.13407000        1.27425000        1.75947000
  |    9: Species H            -0.13407000        2.16087000        0.22380000
  |   10: Species C            -0.39425000       -1.28861000        0.74398000
  |   11: Species O            -0.10189000       -1.56493000        1.88303000
  |   12: Species O            -1.10210000       -2.13717000        0.06896000
  |   13: Species H            -0.63540000       -2.06690000       -0.78088000
  |

  | The smallest distance between any two atoms is         0.97209814 AA.
  |
  | The first atom of this pair is atom number                     12 .
  | The second atom of this pair is atom number                    13 .

  Number of empty states per atom not set in control.in - providing a guess from actual geometry.
  | Total number of empty states used during s.c.f. cycle:       29
  If you use a very high smearing, use empty_states (per atom!) in control.in to increase this value.

  Structure-dependent array size parameters: 
  | Maximum number of distinct radial functions  :       21
  | Maximum number of basis functions            :      119
  | Number of Kohn-Sham states (occupied + empty):       53
------------------------------------------------------------

------------------------------------------------------------
          Preparing all fixed parts of the calculation.
------------------------------------------------------------
  Determining machine precision:
    2.225073858507201E-308
  Setting up grids for atomic and cluster calculations.

  Creating wave function, potential, and density for free atoms.

  Species: H

  List of occupied orbitals and eigenvalues:
    n    l              occ      energy [Ha]    energy [eV]
    1    0           1.0000        -0.237589        -6.4651


  Species: C

  List of occupied orbitals and eigenvalues:
    n    l              occ      energy [Ha]    energy [eV]
    1    0           2.0000       -10.038835      -273.1706
    2    0           2.0000        -0.502696       -13.6791
    2    1           2.0000        -0.191971        -5.2238


  Species: N

  List of occupied orbitals and eigenvalues:
    n    l              occ      energy [Ha]    energy [eV]
    1    0           2.0000       -14.128000      -384.4424
    2    0           2.0000        -0.681077       -18.5330
    2    1           3.0000        -0.259788        -7.0692


  Species: O

  List of occupied orbitals and eigenvalues:
    n    l              occ      energy [Ha]    energy [eV]
    1    0           2.0000       -18.898188      -514.2459
    2    0           2.0000        -0.878505       -23.9053
    2    1           4.0000        -0.331779        -9.0282

  Creating fixed part of basis set: Ionic, confined, hydrogenic.
 
  H                    hydrogenic:
 
  List of hydrogenic basis orbitals: 
    n    l      effective z      eigenvalue [eV]  inner max. [A]     outer max. [A]     outer radius [A]   
    2    0         2.100000       -14.9728           0.193243           1.317208           4.583499
    2    1         3.500000       -41.6669           0.602369           0.602369           3.723403
 
 
  C                    hydrogenic:
 
  List of hydrogenic basis orbitals: 
    n    l      effective z      eigenvalue [eV]  inner max. [A]     outer max. [A]     outer radius [A]   
    2    1         1.700000        -9.7616           1.230570           1.230570           4.607917
    3    2         6.000000       -54.4224           0.792453           0.792453           3.883070
    2    0         4.900000       -81.6679           0.082559           0.562749           3.078220
 
 
  N                    hydrogenic:
 
  List of hydrogenic basis orbitals: 
    n    l      effective z      eigenvalue [eV]  inner max. [A]     outer max. [A]     outer radius [A]   
    2    1         1.800000       -10.9749           1.177451           1.177451           4.573712
    3    2         6.800000       -69.9026           0.704619           0.704619           3.538137
    3    0         5.800000       -50.8545           0.067388           1.191934           4.250239
 
 
  O                    hydrogenic:
 
  List of hydrogenic basis orbitals: 
    n    l      effective z      eigenvalue [eV]  inner max. [A]     outer max. [A]     outer radius [A]   
    2    1         1.800000       -10.9749           1.164242           1.164242           4.578029
    3    2         7.600000       -87.3180           0.624125           0.624125           3.251020
    3    0         6.400000       -61.9207           0.061167           1.081902           4.001998
 

  Adding cutoff potential to free-atom effective potential.
  Creating atomic-like basis functions for current effective potential.

  Species H                   :

  List of atomic basis orbitals and eigenvalues:
    n    l      energy [Ha]    energy [eV]    outer radius [A]
    1    0        -0.237589        -6.4651       4.527807


  Species C                   :

  List of atomic basis orbitals and eigenvalues:
    n    l      energy [Ha]    energy [eV]    outer radius [A]
    1    0       -10.038835      -273.1706       1.934409
    2    0        -0.502696       -13.6791       4.496620
    2    1        -0.191971        -5.2238       4.551928


  Species N                   :

  List of atomic basis orbitals and eigenvalues:
    n    l      energy [Ha]    energy [eV]    outer radius [A]
    1    0       -14.128000      -384.4424       1.637919
    2    0        -0.681077       -18.5330       4.463241
    2    1        -0.259788        -7.0692       4.518138


  Species O                   :

  List of atomic basis orbitals and eigenvalues:
    n    l      energy [Ha]    energy [eV]    outer radius [A]
    1    0       -18.898188      -514.2459       1.415765
    2    0        -0.878505       -23.9053       4.413171
    2    1        -0.331779        -9.0282       4.522403

  Assembling full basis from fixed parts.
  | Species H :   atomic orbital   1 s accepted.
  | Species H :    hydro orbital   2 s accepted.
  | Species H :    hydro orbital   2 p accepted.
  | Species C :   atomic orbital   1 s accepted.
  | Species C :    hydro orbital   2 s accepted.
  | Species C :   atomic orbital   2 s accepted.
  | Species C :   atomic orbital   2 p accepted.
  | Species C :    hydro orbital   2 p accepted.
  | Species C :    hydro orbital   3 d accepted.
  | Species N :   atomic orbital   1 s accepted.
  | Species N :    hydro orbital   3 s accepted.
  | Species N :   atomic orbital   2 s accepted.
  | Species N :   atomic orbital   2 p accepted.
  | Species N :    hydro orbital   2 p accepted.
  | Species N :    hydro orbital   3 d accepted.
  | Species O :   atomic orbital   1 s accepted.
  | Species O :    hydro orbital   3 s accepted.
  | Species O :   atomic orbital   2 s accepted.
  | Species O :   atomic orbital   2 p accepted.
  | Species O :    hydro orbital   2 p accepted.
  | Species O :    hydro orbital   3 d accepted.
 
  Basis size parameters after reduction:
  | Total number of radial functions:       21
  | Total number of basis functions :      119
 
  Per-task memory consumption for arrays in subroutine allocate_ext:
  |           5.250512MB.
  Testing on-site integration grid accuracy.
  |  Species  Function  <phi|h_atom|phi> (log., in eV)  <phi|h_atom|phi> (rad., in eV)
           1        1                 -6.4663192853                 -6.4651273558
           1        2                 13.7111246313                 13.7170609718
           1        3                 25.2673269279                 25.2674696378
           2        4               -273.1705927641               -273.1705631568
           2        5                -10.7109323383                -10.7107120029
           2        6                 17.4381822266                 17.4352413244
           2        7                 -5.2255326521                 -5.2270484734
           2        8                  8.6835629259                  8.6603288385
           2        9                 27.4952418996                 27.4953360207
           3       10               -384.4424306495               -384.4423701208
           3       11                 12.5842251816                 12.5842222903
           3       12                -15.7264628251                -15.7264433455
           3       13                 -7.0696854293                 -7.0701769954
           3       14                  8.8090390882                  8.7901077751
           3       15                 35.9586762123                 35.9588528632
           4       16               -514.2458688638               -514.2457643834
           4       17                 15.1795651126                 15.1795290741
           4       18                -21.5359799773                -21.5360846186
           4       19                 -9.0283069236                 -9.0284644067
           4       20                  8.3027758564                  8.2834874195
           4       21                 45.8339351984                 45.8338762259

  Preparing densities etc. for the partition functions (integrals / Hartree potential).

  Preparations completed.
  max(cpu_time)          :      0.150 s.
  Wall clock time (cpu1) :      0.151 s.
------------------------------------------------------------

------------------------------------------------------------
          Begin self-consistency loop: Initialization.

          Date     :  20200710, Time     :  144644.153
------------------------------------------------------------

  Initializing index lists of integration centers etc. from given atomic structure:
  | Number of centers in hartree potential         :        13
  | Number of centers in hartree multipole         :        13
  | Number of centers in electron density summation:        13
  | Number of centers in basis integrals           :        13
  | Number of centers in integrals                 :        13
  | Number of centers in hamiltonian               :        13
  Partitioning the integration grid into batches with parallel hashing+maxmin method.
  | Number of batches:      960
  | Maximal batch size:     139
  | Minimal batch size:      66
  | Average batch size:      72.548
  | Standard deviation of batch sizes:      16.972

  Integration load balanced across     1 MPI tasks.
  Work distribution over tasks is as follows:
  Task     0 has      69646 integration points.
  Initializing partition tables, free-atom densities, potentials, etc. across the integration grid (initialize_grid_storage).
  | initialize_grid_storage: Actual outermost partition radius vs. multipole_radius_free
  | (-- VB: in principle, multipole_radius_free should be larger, hence this output)
  | Species        1: Confinement radius =              4.999999999999999 AA, multipole_radius_free =              5.054417573612229 AA.
  | Species        1: outer_partition_radius set to              5.054417573612229 AA .
  | Species        2: Confinement radius =              4.999999999999999 AA, multipole_radius_free =              5.019602836301480 AA.
  | Species        2: outer_partition_radius set to              5.019602836301480 AA .
  | Species        3: Confinement radius =              4.999999999999999 AA, multipole_radius_free =              5.043624274424571 AA.
  | Species        3: outer_partition_radius set to              5.043624274424571 AA .
  | Species        4: Confinement radius =              4.999999999999999 AA, multipole_radius_free =              5.048384829883283 AA.
  | Species        4: outer_partition_radius set to              5.048384829883283 AA .
  | Original list of interatomic distances with          13 x         13 entries is created.
  | Net number of integration points:    69646
  | of which are non-zero points    :    59419
  Renormalizing the initial density to the exact electron count on the 3D integration grid.
  | Initial density: Formal number of electrons (from input files) :      48.0000000000
  | Integrated number of electrons on 3D grid     :      47.9999568421
  | Charge integration error                      :      -0.0000431579
  | Normalization factor for density and gradient :       1.0000008991
  Obtaining max. number of non-zero basis functions in each batch (get_n_compute_maxes).
  | Maximal number of non-zero basis functions:      119 in task     0
  Selecting the method for density update.
  Loop over occupied states selected for charge density update.
  Allocating        0.050 MB for KS_eigenvector
  Integrating Hamiltonian matrix: batch-based integration.
  Time summed over all CPUs for integration: real work        0.495 s, elapsed        0.495 s
  Integrating overlap matrix.
  Time summed over all CPUs for integration: real work        0.212 s, elapsed        0.212 s

  Updating Kohn-Sham eigenvalues and eigenvectors using ELSI and the ELPA eigensolver.
  Overlap matrix is nonsingular
  | Lowest eigenvalue of overlap  :  0.45E-02
  | Highest eigenvalue of overlap :  0.62E+01
  Finished singularity check of overlap matrix
  | Time :     0.002 s
  Finished Cholesky decomposition
  | Time :     0.000 s
  Finished transformation to standard eigenproblem
  | Time :     0.000 s
  Starting LAPACK eigensolver
  Finished solving standard eigenproblem
  | Time :     0.002 s
  Finished back-transformation of eigenvectors
  | Time :     0.000 s

  Obtaining occupation numbers and chemical potential using ELSI.
  | Chemical potential (Fermi level):    -9.44055379eV
  Writing Kohn-Sham eigenvalues.

  State    Occupation    Eigenvalue [Ha]    Eigenvalue [eV]
      1       2.00000         -19.007581         -517.22258
      2       2.00000         -18.977141         -516.39428
      3       2.00000         -14.246550         -387.66835
      4       2.00000         -10.166728         -276.65076
      5       2.00000         -10.141705         -275.96983
      6       2.00000         -10.131941         -275.70415
      7       2.00000          -1.181782          -32.15791
      8       2.00000          -1.100449          -29.94475
      9       2.00000          -0.992309          -27.00209
     10       2.00000          -0.860928          -23.42706
     11       2.00000          -0.753940          -20.51576
     12       2.00000          -0.681029          -18.53175
     13       2.00000          -0.635334          -17.28830
     14       2.00000          -0.599386          -16.31013
     15       2.00000          -0.592080          -16.11132
     16       2.00000          -0.565982          -15.40114
     17       2.00000          -0.557600          -15.17306
     18       2.00000          -0.520350          -14.15943
     19       2.00000          -0.513297          -13.96753
     20       2.00000          -0.510274          -13.88525
     21       2.00000          -0.469013          -12.76248
     22       2.00000          -0.426658          -11.60995
     23       2.00000          -0.409084          -11.13175
     24       2.00000          -0.383774          -10.44301
     25       0.00000          -0.154167           -4.19510
     26       0.00000          -0.075240           -2.04739
     27       0.00000          -0.027908           -0.75941
     28       0.00000          -0.018554           -0.50487
     29       0.00000           0.000597            0.01625
     30       0.00000           0.010415            0.28340
     31       0.00000           0.017421            0.47404
     32       0.00000           0.037876            1.03066
     33       0.00000           0.050002            1.36063
     34       0.00000           0.073394            1.99715
     35       0.00000           0.078446            2.13463
     36       0.00000           0.131720            3.58428
     37       0.00000           0.171605            4.66961
     38       0.00000           0.204673            5.56945
     39       0.00000           0.211627            5.75867
     40       0.00000           0.222388            6.05147
     41       0.00000           0.234291            6.37538
     42       0.00000           0.262876            7.15322
     43       0.00000           0.285194            7.76052
     44       0.00000           0.297850            8.10492
     45       0.00000           0.349016            9.49720
     46       0.00000           0.352126            9.58184
     47       0.00000           0.371024           10.09608
     48       0.00000           0.418515           11.38838
     49       0.00000           0.445962           12.13524
     50       0.00000           0.472694           12.86267
     51       0.00000           0.507101           13.79892
     52       0.00000           0.534878           14.55478
     53       0.00000           0.570803           15.53233

  Highest occupied state (VBM) at    -10.44300871 eV
  | Occupation number:      2.00000000

  Lowest unoccupied state (CBM) at    -4.19510281 eV
  | Occupation number:      0.00000000

  Overall HOMO-LUMO gap:      6.24790591 eV.
  Calculating total energy contributions from superposition of free atom densities.

  Total energy components:
  | Sum of eigenvalues            :        -188.84982637 Ha       -5138.86523822 eV
  | XC energy correction          :         -41.79627688 Ha       -1137.33456079 eV
  | XC potential correction       :          53.73051449 Ha        1462.08168920 eV
  | Free-atom electrostatic energy:        -146.84291486 Ha       -3995.79901746 eV
  | Hartree energy correction     :           0.00000000 Ha           0.00000000 eV
  | vdW energy correction         :           0.00000000 Ha           0.00000000 eV
  | Entropy correction            :           0.00000000 Ha           0.00000000 eV
  | ---------------------------
  | Total energy                  :        -323.75850362 Ha       -8809.91712727 eV
  | Total energy, T -> 0          :        -323.75850362 Ha       -8809.91712727 eV  <-- do not rely on this value for anything but (periodic) metals
  | Electronic free energy        :        -323.75850362 Ha       -8809.91712727 eV

  Derived energy quantities:
  | Kinetic energy                :         320.51215063 Ha        8721.57936780 eV
  | Electrostatic energy          :        -602.47437738 Ha      -16394.16193427 eV
  | Energy correction for multipole
  | error in Hartree potential    :           0.00000000 Ha           0.00000000 eV
  | Sum of eigenvalues per atom                           :        -395.29732602 eV
  | Total energy (T->0) per atom                          :        -677.68593287 eV  <-- do not rely on this value for anything but (periodic) metals
  | Electronic free energy per atom                       :        -677.68593287 eV
  Initialize hartree_potential_storage
  Max. number of atoms included in rho_multipole:           13

  End scf initialization - timings             :  max(cpu_time)    wall_clock(cpu1)
  | Time for scf. initialization               :        1.159 s           1.160 s
  | Boundary condition initialization          :        0.000 s           0.000 s
  | Integration                                :        0.707 s           0.708 s
  | Solution of K.-S. eqns.                    :        0.004 s           0.004 s
  | Grid partitioning                          :        0.113 s           0.114 s
  | Preloading free-atom quantities on grid    :        0.002 s           0.002 s
  | Free-atom superposition energy             :        0.085 s           0.085 s
  | Total energy evaluation                    :        0.000 s           0.000 s

  Partial memory accounting:
  | Current value for overall tracked memory usage on task 0  :           0.165 MB
  | Peak value for overall tracked memory usage on task 0     :           0.678 MB after allocating wave
  | Largest tracked array allocation on task 0 so far         :           0.132 MB  when allocating H_times_psi
  Note:  These values currently only include a subset of arrays which are explicitly tracked.
  The "true" memory usage will be greater.
------------------------------------------------------------

------------------------------------------------------------
          Begin self-consistency iteration #    1

  Date     :  20200710, Time     :  144645.314
------------------------------------------------------------
  Evaluating new KS density.
  Integration grid: deviation in total charge (<rho> - N_e) =   2.131628E-14
  Pulay mixing of updated and previous charge densities.

  Evaluating partitioned Hartree potential by multipole expansion.
  | Analytical far-field extrapolation by fixed multipoles:
  | Hartree multipole sum: apparent total charge =  -0.148623E-03
  Summing up the Hartree potential.
  Time summed over all CPUs for potential: real work        0.280 s, elapsed        0.280 s
  | RMS charge density error from multipole expansion :   0.583295E-02

  Integrating Hamiltonian matrix: batch-based integration.
  Time summed over all CPUs for integration: real work        0.499 s, elapsed        0.499 s

  Updating Kohn-Sham eigenvalues and eigenvectors using ELSI and the ELPA eigensolver.
  Finished Cholesky decomposition
  | Time :     0.000 s
  Finished transformation to standard eigenproblem
  | Time :     0.000 s
  Starting LAPACK eigensolver
  Finished solving standard eigenproblem
  | Time :     0.002 s
  Finished back-transformation of eigenvectors
  | Time :     0.000 s

  Obtaining occupation numbers and chemical potential using ELSI.
  | Chemical potential (Fermi level):    -8.40168814eV
  Writing Kohn-Sham eigenvalues.

  State    Occupation    Eigenvalue [Ha]    Eigenvalue [eV]
      1       2.00000         -18.901220         -514.32835
      2       2.00000         -18.832341         -512.45407
      3       2.00000         -14.105603         -383.83297
      4       2.00000         -10.113900         -275.21323
      5       2.00000         -10.066853         -273.93301
      6       2.00000         -10.032990         -273.01154
      7       2.00000          -1.130578          -30.76459
      8       2.00000          -1.034414          -28.14785
      9       2.00000          -0.928828          -25.27471
     10       2.00000          -0.797520          -21.70163
     11       2.00000          -0.702796          -19.12404
     12       2.00000          -0.635849          -17.30234
     13       2.00000          -0.581213          -15.81561
     14       2.00000          -0.546605          -14.87389
     15       2.00000          -0.532977          -14.50304
     16       2.00000          -0.515086          -14.01620
     17       2.00000          -0.488998          -13.30632
     18       2.00000          -0.463412          -12.61008
     19       2.00000          -0.451866          -12.29590
     20       2.00000          -0.449196          -12.22324
     21       2.00000          -0.410940          -11.18224
     22       2.00000          -0.364934           -9.93035
     23       2.00000          -0.336140           -9.14684
     24       2.00000          -0.315817           -8.59382
     25       0.00000          -0.115471           -3.14213
     26       0.00000          -0.056623           -1.54078
     27       0.00000           0.003999            0.10882
     28       0.00000           0.017958            0.48867
     29       0.00000           0.032240            0.87730
     30       0.00000           0.040150            1.09254
     31       0.00000           0.056638            1.54120
     32       0.00000           0.071384            1.94246
     33       0.00000           0.085551            2.32797
     34       0.00000           0.111969            3.04684
     35       0.00000           0.114551            3.11709
     36       0.00000           0.160911            4.37862
     37       0.00000           0.198617            5.40464
     38       0.00000           0.234184            6.37247
     39       0.00000           0.241509            6.57179
     40       0.00000           0.257052            6.99475
     41       0.00000           0.271081            7.37650
     42       0.00000           0.294241            8.00671
     43       0.00000           0.320896            8.73202
     44       0.00000           0.335301            9.12401
     45       0.00000           0.386254           10.51051
     46       0.00000           0.395004           10.74860
     47       0.00000           0.410483           11.16981
     48       0.00000           0.452322           12.30832
     49       0.00000           0.480395           13.07222
     50       0.00000           0.509666           13.86873
     51       0.00000           0.539994           14.69398
     52       0.00000           0.565751           15.39488
     53       0.00000           0.605627           16.47995

  Highest occupied state (VBM) at     -8.59381579 eV
  | Occupation number:      2.00000000

  Lowest unoccupied state (CBM) at    -3.14212801 eV
  | Occupation number:      0.00000000

  Overall HOMO-LUMO gap:      5.45168778 eV.

  Total energy components:
  | Sum of eigenvalues            :        -185.48015203 Ha       -5047.17173398 eV
  | XC energy correction          :         -42.12207751 Ha       -1146.20004714 eV
  | XC potential correction       :          54.15417395 Ha        1473.61004977 eV
  | Free-atom electrostatic energy:        -146.84291486 Ha       -3995.79901746 eV
  | Hartree energy correction     :          -3.28639965 Ha         -89.42748444 eV
  | vdW energy correction         :           0.00000000 Ha           0.00000000 eV
  | Entropy correction            :          -0.00000000 Ha          -0.00000000 eV
  | ---------------------------
  | Total energy                  :        -323.57737010 Ha       -8804.98823325 eV
  | Total energy, T -> 0          :        -323.57737010 Ha       -8804.98823325 eV  <-- do not rely on this value for anything but (periodic) metals
  | Electronic free energy        :        -323.57737010 Ha       -8804.98823325 eV

  Derived energy quantities:
  | Kinetic energy                :         322.29104816 Ha        8769.98563227 eV
  | Electrostatic energy          :        -603.74634074 Ha      -16428.77381837 eV
  | Energy correction for multipole
  | error in Hartree potential    :           0.01156961 Ha           0.31482523 eV
  | Sum of eigenvalues per atom                           :        -388.24397954 eV
  | Total energy (T->0) per atom                          :        -677.30678717 eV  <-- do not rely on this value for anything but (periodic) metals
  | Electronic free energy per atom                       :        -677.30678717 eV

  Self-consistency convergence accuracy:
  | Change of charge density      :  0.5827E+00
  | Change of sum of eigenvalues  :  0.9169E+02 eV
  | Change of total energy        :  0.4929E+01 eV

  End self-consistency iteration #     1       :  max(cpu_time)    wall_clock(cpu1)
  | Time for this iteration                    :        1.194 s           1.195 s
  | Charge density update                      :        0.397 s           0.397 s
  | Density mixing                             :        0.006 s           0.006 s
  | Hartree multipole update                   :        0.009 s           0.009 s
  | Hartree multipole summation                :        0.281 s           0.281 s
  | Integration                                :        0.499 s           0.499 s
  | Solution of K.-S. eqns.                    :        0.002 s           0.002 s
  | Total energy evaluation                    :        0.000 s           0.000 s

  Partial memory accounting:
  | Current value for overall tracked memory usage on task 0  :           0.165 MB
  | Peak value for overall tracked memory usage on task 0     :           0.695 MB after allocating gradient_basis_wave
  | Largest tracked array allocation on task 0 so far         :           0.397 MB  when allocating gradient_basis_wave
  Note:  These values currently only include a subset of arrays which are explicitly tracked.
  The "true" memory usage will be greater.
------------------------------------------------------------

------------------------------------------------------------
          Begin self-consistency iteration #    2

  Date     :  20200710, Time     :  144646.511
------------------------------------------------------------
  Evaluating new KS density.
  Integration grid: deviation in total charge (<rho> - N_e) =   1.421085E-14
  Pulay mixing of updated and previous charge densities.

  Evaluating partitioned Hartree potential by multipole expansion.
  | Analytical far-field extrapolation by fixed multipoles:
  | Hartree multipole sum: apparent total charge =  -0.281859E-03
  Summing up the Hartree potential.
  Time summed over all CPUs for potential: real work        0.285 s, elapsed        0.285 s
  | RMS charge density error from multipole expansion :   0.138185E-01

  Integrating Hamiltonian matrix: batch-based integration.
  Time summed over all CPUs for integration: real work        0.492 s, elapsed        0.492 s

  Updating Kohn-Sham eigenvalues and eigenvectors using ELSI and the ELPA eigensolver.
  Finished Cholesky decomposition
  | Time :     0.000 s
  Finished transformation to standard eigenproblem
  | Time :     0.000 s
  Starting LAPACK eigensolver
  Finished solving standard eigenproblem
  | Time :     0.002 s
  Finished back-transformation of eigenvectors
  | Time :     0.000 s

  Obtaining occupation numbers and chemical potential using ELSI.
  | Chemical potential (Fermi level):    -3.00953969eV
  Highest occupied state (VBM) at     -6.74650520 eV
  | Occupation number:      2.00000000

  Lowest unoccupied state (CBM) at    -1.82400783 eV
  | Occupation number:      0.00000000

  Overall HOMO-LUMO gap:      4.92249737 eV.

  Checking to see if s.c.f. parameters should be adjusted.

  Total energy components:
  | Sum of eigenvalues            :        -181.97859128 Ha       -4951.88941801 eV
  | XC energy correction          :         -42.47409516 Ha       -1155.77893459 eV
  | XC potential correction       :          54.61029030 Ha        1486.02160698 eV
  | Free-atom electrostatic energy:        -146.84291486 Ha       -3995.79901746 eV
  | Hartree energy correction     :          -6.81460036 Ha        -185.43471050 eV
  | vdW energy correction         :           0.00000000 Ha           0.00000000 eV
  | Entropy correction            :           0.00000000 Ha           0.00000000 eV
  | ---------------------------
  | Total energy                  :        -323.49991135 Ha       -8802.88047357 eV
  | Total energy, T -> 0          :        -323.49991135 Ha       -8802.88047357 eV  <-- do not rely on this value for anything but (periodic) metals
  | Electronic free energy        :        -323.49991135 Ha       -8802.88047357 eV

  Derived energy quantities:
  | Kinetic energy                :         323.58082241 Ha        8805.08217529 eV
  | Electrostatic energy          :        -604.60663860 Ha      -16452.18371428 eV
  | Energy correction for multipole
  | error in Hartree potential    :           0.02528799 Ha           0.68812124 eV
  | Sum of eigenvalues per atom                           :        -380.91457062 eV
  | Total energy (T->0) per atom                          :        -677.14465181 eV  <-- do not rely on this value for anything but (periodic) metals
  | Electronic free energy per atom                       :        -677.14465181 eV

  Self-consistency convergence accuracy:
  | Change of charge density      :  0.3639E+00
  | Change of sum of eigenvalues  :  0.9528E+02 eV
  | Change of total energy        :  0.2108E+01 eV

  End self-consistency iteration #     2       :  max(cpu_time)    wall_clock(cpu1)
  | Time for this iteration                    :        1.188 s           1.190 s
  | Charge density update                      :        0.393 s           0.393 s
  | Density mixing                             :        0.007 s           0.007 s
  | Hartree multipole update                   :        0.009 s           0.009 s
  | Hartree multipole summation                :        0.285 s           0.286 s
  | Integration                                :        0.492 s           0.492 s
  | Solution of K.-S. eqns.                    :        0.002 s           0.002 s
  | Total energy evaluation                    :        0.000 s           0.000 s

  Partial memory accounting:
  | Current value for overall tracked memory usage on task 0  :           0.166 MB
  | Peak value for overall tracked memory usage on task 0     :           0.695 MB after allocating gradient_basis_wave
  | Largest tracked array allocation on task 0 so far         :           0.397 MB  when allocating gradient_basis_wave
  Note:  These values currently only include a subset of arrays which are explicitly tracked.
  The "true" memory usage will be greater.
------------------------------------------------------------

------------------------------------------------------------
          Begin self-consistency iteration #    3

  Date     :  20200710, Time     :  144647.703
------------------------------------------------------------
  Evaluating new KS density.
  Integration grid: deviation in total charge (<rho> - N_e) =  -2.131628E-14
  Pulay mixing of updated and previous charge densities.

  Evaluating partitioned Hartree potential by multipole expansion.
  | Analytical far-field extrapolation by fixed multipoles:
  | Hartree multipole sum: apparent total charge =  -0.378585E-03
  Summing up the Hartree potential.
  Time summed over all CPUs for potential: real work        0.283 s, elapsed        0.283 s
  | RMS charge density error from multipole expansion :   0.219999E-01

  Integrating Hamiltonian matrix: batch-based integration.
  Time summed over all CPUs for integration: real work        0.493 s, elapsed        0.493 s

  Updating Kohn-Sham eigenvalues and eigenvectors using ELSI and the ELPA eigensolver.
  Finished Cholesky decomposition
  | Time :     0.000 s
  Finished transformation to standard eigenproblem
  | Time :     0.000 s
  Starting LAPACK eigensolver
  Finished solving standard eigenproblem
  | Time :     0.001 s
  Finished back-transformation of eigenvectors
  | Time :     0.000 s

  Obtaining occupation numbers and chemical potential using ELSI.
  | Chemical potential (Fermi level):    -2.33065696eV
  Highest occupied state (VBM) at     -6.09380585 eV
  | Occupation number:      2.00000000

  Lowest unoccupied state (CBM) at    -1.09942235 eV
  | Occupation number:      0.00000000

  Overall HOMO-LUMO gap:      4.99438351 eV.

  Total energy components:
  | Sum of eigenvalues            :        -180.65439668 Ha       -4915.85624976 eV
  | XC energy correction          :         -42.62833017 Ha       -1159.97588286 eV
  | XC potential correction       :          54.80674677 Ha        1491.36745942 eV
  | Free-atom electrostatic energy:        -146.84291486 Ha       -3995.79901746 eV
  | Hartree energy correction     :          -8.16795086 Ha        -222.26125137 eV
  | vdW energy correction         :           0.00000000 Ha           0.00000000 eV
  | Entropy correction            :           0.00000000 Ha           0.00000000 eV
  | ---------------------------
  | Total energy                  :        -323.48684581 Ha       -8802.52494204 eV
  | Total energy, T -> 0          :        -323.48684581 Ha       -8802.52494204 eV  <-- do not rely on this value for anything but (periodic) metals
  | Electronic free energy        :        -323.48684581 Ha       -8802.52494204 eV

  Derived energy quantities:
  | Kinetic energy                :         323.17844631 Ha        8794.13296470 eV
  | Electrostatic energy          :        -604.03696195 Ha      -16436.68202388 eV
  | Energy correction for multipole
  | error in Hartree potential    :           0.03589375 Ha           0.97671854 eV
  | Sum of eigenvalues per atom                           :        -378.14278844 eV
  | Total energy (T->0) per atom                          :        -677.11730323 eV  <-- do not rely on this value for anything but (periodic) metals
  | Electronic free energy per atom                       :        -677.11730323 eV

  Self-consistency convergence accuracy:
  | Change of charge density      :  0.2054E+00
  | Change of sum of eigenvalues  :  0.3603E+02 eV
  | Change of total energy        :  0.3555E+00 eV

  End self-consistency iteration #     3       :  max(cpu_time)    wall_clock(cpu1)
  | Time for this iteration                    :        1.185 s           1.186 s
  | Charge density update                      :        0.389 s           0.389 s
  | Density mixing                             :        0.009 s           0.009 s
  | Hartree multipole update                   :        0.009 s           0.009 s
  | Hartree multipole summation                :        0.283 s           0.283 s
  | Integration                                :        0.493 s           0.494 s
  | Solution of K.-S. eqns.                    :        0.002 s           0.002 s
  | Total energy evaluation                    :        0.000 s           0.000 s

  Partial memory accounting:
  | Current value for overall tracked memory usage on task 0  :           0.166 MB
  | Peak value for overall tracked memory usage on task 0     :           0.695 MB after allocating gradient_basis_wave
  | Largest tracked array allocation on task 0 so far         :           0.397 MB  when allocating gradient_basis_wave
  Note:  These values currently only include a subset of arrays which are explicitly tracked.
  The "true" memory usage will be greater.
------------------------------------------------------------

------------------------------------------------------------
          Begin self-consistency iteration #    4

  Date     :  20200710, Time     :  144648.891
------------------------------------------------------------
  Evaluating new KS density.
  Integration grid: deviation in total charge (<rho> - N_e) =   4.973799E-14
  Pulay mixing of updated and previous charge densities.

  Evaluating partitioned Hartree potential by multipole expansion.
  | Analytical far-field extrapolation by fixed multipoles:
  | Hartree multipole sum: apparent total charge =  -0.409345E-03
  Summing up the Hartree potential.
  Time summed over all CPUs for potential: real work        0.285 s, elapsed        0.286 s
  | RMS charge density error from multipole expansion :   0.253732E-01

  Integrating Hamiltonian matrix: batch-based integration.
  Time summed over all CPUs for integration: real work        0.496 s, elapsed        0.496 s

  Updating Kohn-Sham eigenvalues and eigenvectors using ELSI and the ELPA eigensolver.
  Finished Cholesky decomposition
  | Time :     0.000 s
  Finished transformation to standard eigenproblem
  | Time :     0.000 s
  Starting LAPACK eigensolver
  Finished solving standard eigenproblem
  | Time :     0.002 s
  Finished back-transformation of eigenvectors
  | Time :     0.000 s

  Obtaining occupation numbers and chemical potential using ELSI.
  | Chemical potential (Fermi level):    -2.24245640eV
  Highest occupied state (VBM) at     -5.87791531 eV
  | Occupation number:      2.00000000

  Lowest unoccupied state (CBM) at    -1.01586067 eV
  | Occupation number:      0.00000000

  Overall HOMO-LUMO gap:      4.86205464 eV.

  Total energy components:
  | Sum of eigenvalues            :        -180.53741296 Ha       -4912.67296065 eV
  | XC energy correction          :         -42.66500535 Ha       -1160.97386538 eV
  | XC potential correction       :          54.85274763 Ha        1492.61920654 eV
  | Free-atom electrostatic energy:        -146.84291486 Ha       -3995.79901746 eV
  | Hartree energy correction     :          -8.29328491 Ha        -225.67176440 eV
  | vdW energy correction         :           0.00000000 Ha           0.00000000 eV
  | Entropy correction            :           0.00000000 Ha           0.00000000 eV
  | ---------------------------
  | Total energy                  :        -323.48587046 Ha       -8802.49840135 eV
  | Total energy, T -> 0          :        -323.48587046 Ha       -8802.49840135 eV  <-- do not rely on this value for anything but (periodic) metals
  | Electronic free energy        :        -323.48587046 Ha       -8802.49840135 eV

  Derived energy quantities:
  | Kinetic energy                :         322.80065851 Ha        8783.85283556 eV
  | Electrostatic energy          :        -603.62152361 Ha      -16425.37737152 eV
  | Energy correction for multipole
  | error in Hartree potential    :           0.03981993 Ha           1.08355529 eV
  | Sum of eigenvalues per atom                           :        -377.89792005 eV
  | Total energy (T->0) per atom                          :        -677.11526164 eV  <-- do not rely on this value for anything but (periodic) metals
  | Electronic free energy per atom                       :        -677.11526164 eV

  Self-consistency convergence accuracy:
  | Change of charge density      :  0.6505E-01
  | Change of sum of eigenvalues  :  0.3183E+01 eV
  | Change of total energy        :  0.2654E-01 eV

  End self-consistency iteration #     4       :  max(cpu_time)    wall_clock(cpu1)
  | Time for this iteration                    :        1.195 s           1.196 s
  | Charge density update                      :        0.392 s           0.392 s
  | Density mixing                             :        0.010 s           0.010 s
  | Hartree multipole update                   :        0.009 s           0.009 s
  | Hartree multipole summation                :        0.286 s           0.286 s
  | Integration                                :        0.496 s           0.495 s
  | Solution of K.-S. eqns.                    :        0.002 s           0.003 s
  | Total energy evaluation                    :        0.000 s           0.000 s

  Partial memory accounting:
  | Current value for overall tracked memory usage on task 0  :           0.166 MB
  | Peak value for overall tracked memory usage on task 0     :           0.696 MB after allocating gradient_basis_wave
  | Largest tracked array allocation on task 0 so far         :           0.397 MB  when allocating gradient_basis_wave
  Note:  These values currently only include a subset of arrays which are explicitly tracked.
  The "true" memory usage will be greater.
------------------------------------------------------------

------------------------------------------------------------
          Begin self-consistency iteration #    5

  Date     :  20200710, Time     :  144650.089
------------------------------------------------------------
  Evaluating new KS density.
  Integration grid: deviation in total charge (<rho> - N_e) =   0.000000E+00
  Pulay mixing of updated and previous charge densities.

  Evaluating partitioned Hartree potential by multipole expansion.
  | Analytical far-field extrapolation by fixed multipoles:
  | Hartree multipole sum: apparent total charge =  -0.403676E-03
  Summing up the Hartree potential.
  Time summed over all CPUs for potential: real work        0.284 s, elapsed        0.284 s
  | RMS charge density error from multipole expansion :   0.251230E-01

  Integrating Hamiltonian matrix: batch-based integration.
  Time summed over all CPUs for integration: real work        0.494 s, elapsed        0.494 s

  Updating Kohn-Sham eigenvalues and eigenvectors using ELSI and the ELPA eigensolver.
  Finished Cholesky decomposition
  | Time :     0.000 s
  Finished transformation to standard eigenproblem
  | Time :     0.000 s
  Starting LAPACK eigensolver
  Finished solving standard eigenproblem
  | Time :     0.001 s
  Finished back-transformation of eigenvectors
  | Time :     0.000 s

  Obtaining occupation numbers and chemical potential using ELSI.
  | Chemical potential (Fermi level):    -2.30473456eV
  Highest occupied state (VBM) at     -5.98754803 eV
  | Occupation number:      2.00000000

  Lowest unoccupied state (CBM) at    -1.09942902 eV
  | Occupation number:      0.00000000

  Overall HOMO-LUMO gap:      4.88811901 eV.

  Total energy components:
  | Sum of eigenvalues            :        -180.71389187 Ha       -4917.47519604 eV
  | XC energy correction          :         -42.64287733 Ha       -1160.37173123 eV
  | XC potential correction       :          54.82404680 Ha        1491.83821745 eV
  | Free-atom electrostatic energy:        -146.84291486 Ha       -3995.79901746 eV
  | Hartree energy correction     :          -8.10992844 Ha        -220.68238116 eV
  | vdW energy correction         :           0.00000000 Ha           0.00000000 eV
  | Entropy correction            :           0.00000000 Ha           0.00000000 eV
  | ---------------------------
  | Total energy                  :        -323.48556570 Ha       -8802.49010844 eV
  | Total energy, T -> 0          :        -323.48556570 Ha       -8802.49010844 eV  <-- do not rely on this value for anything but (periodic) metals
  | Electronic free energy        :        -323.48556570 Ha       -8802.49010844 eV

  Derived energy quantities:
  | Kinetic energy                :         322.70245076 Ha        8781.18046661 eV
  | Electrostatic energy          :        -603.54513912 Ha      -16423.29884382 eV
  | Energy correction for multipole
  | error in Hartree potential    :           0.03921816 Ha           1.06718051 eV
  | Sum of eigenvalues per atom                           :        -378.26732277 eV
  | Total energy (T->0) per atom                          :        -677.11462373 eV  <-- do not rely on this value for anything but (periodic) metals
  | Electronic free energy per atom                       :        -677.11462373 eV

  Self-consistency convergence accuracy:
  | Change of charge density      :  0.2173E-01
  | Change of sum of eigenvalues  : -0.4802E+01 eV
  | Change of total energy        :  0.8293E-02 eV

  End self-consistency iteration #     5       :  max(cpu_time)    wall_clock(cpu1)
  | Time for this iteration                    :        1.187 s           1.189 s
  | Charge density update                      :        0.387 s           0.387 s
  | Density mixing                             :        0.011 s           0.012 s
  | Hartree multipole update                   :        0.009 s           0.009 s
  | Hartree multipole summation                :        0.285 s           0.285 s
  | Integration                                :        0.493 s           0.494 s
  | Solution of K.-S. eqns.                    :        0.002 s           0.002 s
  | Total energy evaluation                    :        0.000 s           0.000 s

  Partial memory accounting:
  | Current value for overall tracked memory usage on task 0  :           0.166 MB
  | Peak value for overall tracked memory usage on task 0     :           0.696 MB after allocating gradient_basis_wave
  | Largest tracked array allocation on task 0 so far         :           0.397 MB  when allocating gradient_basis_wave
  Note:  These values currently only include a subset of arrays which are explicitly tracked.
  The "true" memory usage will be greater.
------------------------------------------------------------

------------------------------------------------------------
          Begin self-consistency iteration #    6

  Date     :  20200710, Time     :  144651.281
------------------------------------------------------------
  Evaluating new KS density.
  Integration grid: deviation in total charge (<rho> - N_e) =  -7.105427E-15
  Pulay mixing of updated and previous charge densities.

  Evaluating partitioned Hartree potential by multipole expansion.
  | Analytical far-field extrapolation by fixed multipoles:
  | Hartree multipole sum: apparent total charge =  -0.406069E-03
  Summing up the Hartree potential.
  Time summed over all CPUs for potential: real work        0.286 s, elapsed        0.286 s
  | RMS charge density error from multipole expansion :   0.254876E-01

  Integrating Hamiltonian matrix: batch-based integration.
  Time summed over all CPUs for integration: real work        0.507 s, elapsed        0.507 s

  Updating Kohn-Sham eigenvalues and eigenvectors using ELSI and the ELPA eigensolver.
  Finished Cholesky decomposition
  | Time :     0.000 s
  Finished transformation to standard eigenproblem
  | Time :     0.000 s
  Starting LAPACK eigensolver
  Finished solving standard eigenproblem
  | Time :     0.002 s
  Finished back-transformation of eigenvectors
  | Time :     0.000 s

  Obtaining occupation numbers and chemical potential using ELSI.
  | Chemical potential (Fermi level):    -2.31600204eV
  Highest occupied state (VBM) at     -5.98085121 eV
  | Occupation number:      2.00000000

  Lowest unoccupied state (CBM) at    -1.12380878 eV
  | Occupation number:      0.00000000

  Overall HOMO-LUMO gap:      4.85704243 eV.

  Total energy components:
  | Sum of eigenvalues            :        -180.74030875 Ha       -4918.19403605 eV
  | XC energy correction          :         -42.63916406 Ha       -1160.27068798 eV
  | XC potential correction       :          54.81919173 Ha        1491.70610407 eV
  | Free-atom electrostatic energy:        -146.84291486 Ha       -3995.79901746 eV
  | Hartree energy correction     :          -8.08230832 Ha        -219.93079937 eV
  | vdW energy correction         :           0.00000000 Ha           0.00000000 eV
  | Entropy correction            :           0.00000000 Ha           0.00000000 eV
  | ---------------------------
  | Total energy                  :        -323.48550427 Ha       -8802.48843679 eV
  | Total energy, T -> 0          :        -323.48550427 Ha       -8802.48843679 eV  <-- do not rely on this value for anything but (periodic) metals
  | Electronic free energy        :        -323.48550427 Ha       -8802.48843679 eV

  Derived energy quantities:
  | Kinetic energy                :         322.61796140 Ha        8778.88139426 eV
  | Electrostatic energy          :        -603.46430161 Ha      -16421.09914307 eV
  | Energy correction for multipole
  | error in Hartree potential    :           0.03945849 Ha           1.07372023 eV
  | Sum of eigenvalues per atom                           :        -378.32261816 eV
  | Total energy (T->0) per atom                          :        -677.11449514 eV  <-- do not rely on this value for anything but (periodic) metals
  | Electronic free energy per atom                       :        -677.11449514 eV

  Self-consistency convergence accuracy:
  | Change of charge density      :  0.1073E-01
  | Change of sum of eigenvalues  : -0.7188E+00 eV
  | Change of total energy        :  0.1672E-02 eV

  End self-consistency iteration #     6       :  max(cpu_time)    wall_clock(cpu1)
  | Time for this iteration                    :        1.200 s           1.208 s
  | Charge density update                      :        0.389 s           0.389 s
  | Density mixing                             :        0.013 s           0.013 s
  | Hartree multipole update                   :        0.009 s           0.009 s
  | Hartree multipole summation                :        0.287 s           0.287 s
  | Integration                                :        0.500 s           0.507 s
  | Solution of K.-S. eqns.                    :        0.002 s           0.002 s
  | Total energy evaluation                    :        0.000 s           0.001 s

  Partial memory accounting:
  | Current value for overall tracked memory usage on task 0  :           0.166 MB
  | Peak value for overall tracked memory usage on task 0     :           0.696 MB after allocating gradient_basis_wave
  | Largest tracked array allocation on task 0 so far         :           0.397 MB  when allocating gradient_basis_wave
  Note:  These values currently only include a subset of arrays which are explicitly tracked.
  The "true" memory usage will be greater.
------------------------------------------------------------

------------------------------------------------------------
          Begin self-consistency iteration #    7

  Date     :  20200710, Time     :  144652.491
------------------------------------------------------------
  Evaluating new KS density.
  Integration grid: deviation in total charge (<rho> - N_e) =   0.000000E+00
  Pulay mixing of updated and previous charge densities.

  Evaluating partitioned Hartree potential by multipole expansion.
  | Analytical far-field extrapolation by fixed multipoles:
  | Hartree multipole sum: apparent total charge =  -0.407178E-03
  Summing up the Hartree potential.
  Time summed over all CPUs for potential: real work        0.282 s, elapsed        0.282 s
  | RMS charge density error from multipole expansion :   0.256235E-01

  Integrating Hamiltonian matrix: batch-based integration.
  Time summed over all CPUs for integration: real work        0.497 s, elapsed        0.497 s

  Updating Kohn-Sham eigenvalues and eigenvectors using ELSI and the ELPA eigensolver.
  Finished Cholesky decomposition
  | Time :     0.000 s
  Finished transformation to standard eigenproblem
  | Time :     0.000 s
  Starting LAPACK eigensolver
  Finished solving standard eigenproblem
  | Time :     0.002 s
  Finished back-transformation of eigenvectors
  | Time :     0.000 s

[...]
  |   Hirshfeld dipole moment :      0.05990323
  |   Hirshfeld second moments:      0.01034029      -0.02679211      -0.01415123
  |                                 -0.02679211      -0.02698222       0.00437910
  |                                 -0.01415123       0.00437910      -0.02167738
  ----------------------------------------------------------------------
  | Atom    12: O
  |   Hirshfeld charge        :     -0.14704968
  |   Free atom volume        :     23.61338643
  |   Hirshfeld volume        :     21.16909361
  |   Hirshfeld dipole vector :      0.02345033       0.03189035      -0.00672805
  |   Hirshfeld dipole moment :      0.04015195
  |   Hirshfeld second moments:      0.04935061      -0.00912222      -0.01611350
  |                                 -0.00912222       0.03042239       0.03162968
  |                                 -0.01611350       0.03162968       0.07767139
  ----------------------------------------------------------------------
  | Atom    13: H
  |   Hirshfeld charge        :      0.15739667
  |   Free atom volume        :      9.95071624
  |   Hirshfeld volume        :      6.68407179
  |   Hirshfeld dipole vector :      0.05603187      -0.02743039      -0.09091754
  |   Hirshfeld dipole moment :      0.11026331
  |   Hirshfeld second moments:      0.11086781      -0.00231140       0.00227824
  |                                 -0.00231140       0.08672671       0.02372006
  |                                  0.00227824       0.02372006       0.10140305
  ----------------------------------------------------------------------


  Total energy components:
  | Sum of eigenvalues            :        -180.73141760 Ha       -4917.95209547 eV
  | XC energy correction          :         -42.63705784 Ha       -1160.21337487 eV
  | XC potential correction       :          54.81653668 Ha        1491.63385664 eV
  | Free-atom electrostatic energy:        -146.84291486 Ha       -3995.79901746 eV
  | Hartree energy correction     :          -8.09063171 Ha        -220.15729044 eV
  | vdW energy correction         :          -0.00313320 Ha          -0.08525877 eV
  | Entropy correction            :           0.00000000 Ha           0.00000000 eV
  | ---------------------------
  | Total energy                  :        -323.48861854 Ha       -8802.57318037 eV
  | Total energy, T -> 0          :        -323.48861854 Ha       -8802.57318037 eV  <-- do not rely on this value for anything but (periodic) metals
  | Electronic free energy        :        -323.48861854 Ha       -8802.57318037 eV

  Derived energy quantities:
  | Kinetic energy                :         322.58297761 Ha        8777.92943698 eV
  | Electrostatic energy          :        -603.43140511 Ha      -16420.20398371 eV
  | Energy correction for multipole
  | error in Hartree potential    :           0.03954407 Ha           1.07604879 eV
  | Sum of eigenvalues per atom                           :        -378.30400734 eV
  | Total energy (T->0) per atom                          :        -677.12101387 eV  <-- do not rely on this value for anything but (periodic) metals
  | Electronic free energy per atom                       :        -677.12101387 eV

  atomic forces [eV/Ang]:
  -----------------------
  atom #    1
   Hellmann-Feynman              :  0.148352E+01  0.215870E-01  0.122337E+01
   Ionic forces                  :  0.000000E+00  0.000000E+00  0.000000E+00
   Multipole                     :  0.161802E+00  0.224085E+00 -0.337053E+00
   Pulay + GGA                   : -0.153988E+01  0.158207E+00 -0.129407E+01
   Van der Waals                 :  0.185427E-02  0.154892E-02 -0.870821E-03
   ----------------------------------------------------------------
   Total forces(   1)            :  0.107297E+00  0.405429E+00 -0.408623E+00
  atom #    2
   Hellmann-Feynman              :  0.466792E+00  0.547070E-01  0.344119E+00
   Ionic forces                  :  0.000000E+00  0.000000E+00  0.000000E+00
   Multipole                     :  0.138767E+00  0.269757E-01 -0.369883E-01
   Pulay + GGA                   : -0.121385E+00  0.206124E-01  0.189628E-01
   Van der Waals                 :  0.985480E-02 -0.429967E-02 -0.105233E-02
   ----------------------------------------------------------------
   Total forces(   2)            :  0.494030E+00  0.979955E-01  0.325041E+00
  atom #    3
   Hellmann-Feynman              : -0.119817E+02 -0.252111E+01  0.136519E+01
   Ionic forces                  :  0.000000E+00  0.000000E+00  0.000000E+00
   Multipole                     : -0.862980E-01  0.361884E-01 -0.763600E+00
   Pulay + GGA                   :  0.116955E+02  0.237362E+01  0.295517E+00
   Van der Waals                 :  0.353170E-02 -0.472369E-02 -0.855179E-02
   ----------------------------------------------------------------
   Total forces(   3)            : -0.369024E+00 -0.116028E+00  0.888556E+00
  atom #    4
   Hellmann-Feynman              :  0.231168E+00 -0.115948E-02 -0.207195E+00
   Ionic forces                  :  0.000000E+00  0.000000E+00  0.000000E+00
   Multipole                     :  0.332819E-01  0.261491E-01 -0.923757E-01
   Pulay + GGA                   : -0.132735E+00 -0.179916E+00  0.823606E-01
   Van der Waals                 : -0.475070E-02 -0.770026E-02 -0.366587E-02
   ----------------------------------------------------------------
   Total forces(   4)            :  0.126965E+00 -0.162626E+00 -0.220876E+00
  atom #    5
   Hellmann-Feynman              :  0.372750E+00  0.125878E+00 -0.432392E+00
   Ionic forces                  :  0.000000E+00  0.000000E+00  0.000000E+00
   Multipole                     :  0.550502E-01 -0.254444E-01 -0.120756E+00
   Pulay + GGA                   : -0.132408E+00  0.202126E+00  0.478803E-01
   Van der Waals                 :  0.120591E-02  0.766639E-02 -0.835979E-02
   ----------------------------------------------------------------
   Total forces(   5)            :  0.296598E+00  0.310225E+00 -0.513628E+00
  atom #    6
   Hellmann-Feynman              : -0.399614E+00 -0.480146E+00  0.341832E+00
   Ionic forces                  :  0.000000E+00  0.000000E+00  0.000000E+00
   Multipole                     : -0.918096E-01  0.666056E+00  0.248055E+00
   Pulay + GGA                   :  0.528857E+00 -0.677574E+00 -0.607934E+00
   Van der Waals                 : -0.272202E-02  0.248035E-02 -0.302880E-02
   ----------------------------------------------------------------
   Total forces(   6)            :  0.347114E-01 -0.489184E+00 -0.210754E-01
  atom #    7
   Hellmann-Feynman              : -0.208386E+00 -0.391004E-01 -0.458967E-01
   Ionic forces                  :  0.000000E+00  0.000000E+00  0.000000E+00
   Multipole                     : -0.122050E+00  0.468822E-01  0.315461E-01
   Pulay + GGA                   :  0.117811E+00 -0.158411E-01 -0.165421E-01
   Van der Waals                 : -0.773776E-03  0.188503E-02  0.238133E-02
   ----------------------------------------------------------------
   Total forces(   7)            : -0.213399E+00 -0.617428E-02 -0.285114E-01
  atom #    8
   Hellmann-Feynman              :  0.983064E-01 -0.653816E-01  0.899311E-01
   Ionic forces                  :  0.000000E+00  0.000000E+00  0.000000E+00
   Multipole                     :  0.149733E-01  0.682418E-01  0.129874E+00
   Pulay + GGA                   : -0.485039E-01 -0.472275E-01 -0.104809E+00
   Van der Waals                 : -0.254556E-02  0.114917E-01  0.984184E-03
   ----------------------------------------------------------------
   Total forces(   8)            :  0.622302E-01 -0.328756E-01  0.115980E+00
  atom #    9
   Hellmann-Feynman              :  0.126173E+00  0.727185E-01 -0.202160E+00
   Ionic forces                  :  0.000000E+00  0.000000E+00  0.000000E+00
   Multipole                     :  0.215591E-01  0.129772E+00 -0.398219E-03
   Pulay + GGA                   : -0.400799E-01 -0.600668E-01  0.821148E-01
   Van der Waals                 : -0.156590E-02  0.661356E-02  0.867489E-02
   ----------------------------------------------------------------
   Total forces(   9)            :  0.106086E+00  0.149038E+00 -0.111768E+00
  atom #   10
   Hellmann-Feynman              :  0.281856E+01  0.413851E+01  0.172481E+01
   Ionic forces                  :  0.000000E+00  0.000000E+00  0.000000E+00
   Multipole                     : -0.933600E-02 -0.964469E-01  0.250010E+00
   Pulay + GGA                   : -0.185905E+01 -0.252543E+01  0.889004E-01
   Van der Waals                 :  0.166522E-02 -0.109200E-01  0.235731E-02
   ----------------------------------------------------------------
   Total forces(  10)            :  0.951837E+00  0.150571E+01  0.206608E+01
  atom #   11
   Hellmann-Feynman              :  0.417825E+01 -0.248631E+01  0.140262E+02
   Ionic forces                  :  0.000000E+00  0.000000E+00  0.000000E+00
   Multipole                     :  0.232003E+00 -0.615560E+00  0.738618E+00
   Pulay + GGA                   : -0.395307E+01  0.396337E+01 -0.136776E+02
   Van der Waals                 : -0.198666E-02 -0.111673E-01  0.773769E-02
   ----------------------------------------------------------------
   Total forces(  11)            :  0.455197E+00  0.850328E+00  0.109495E+01
  atom #   12
   Hellmann-Feynman              : -0.109118E+02 -0.101827E+02  0.189053E+01
   Ionic forces                  :  0.000000E+00  0.000000E+00  0.000000E+00
   Multipole                     : -0.869194E+00 -0.145128E+01  0.564113E-02
   Pulay + GGA                   :  0.108944E+02  0.953397E+01 -0.402519E+01
   Van der Waals                 : -0.217159E-02  0.360066E-02  0.828662E-02
   ----------------------------------------------------------------
   Total forces(  12)            : -0.888790E+00 -0.209643E+01 -0.212073E+01
  atom #   13
   Hellmann-Feynman              : -0.946280E+00 -0.379732E+00 -0.137587E+01
   Ionic forces                  :  0.000000E+00  0.000000E+00  0.000000E+00
   Multipole                     :  0.507975E-01 -0.696462E-03 -0.870291E-01
   Pulay + GGA                   : -0.264803E+00 -0.386333E-01  0.394795E+00
   Van der Waals                 : -0.159569E-02  0.352420E-02 -0.489262E-02
   ----------------------------------------------------------------
   Total forces(  13)            : -0.116188E+01 -0.415537E+00 -0.107300E+01

  Timings for VdW correction (Tkatchenko-Scheffler 2009 or later):
  | CPU time:        0.089 s, Wall clock time:        0.090 s.
  Removing unitary transformations (pure translations, rotations) from forces on atoms.
  Atomic forces before filtering:
  | Net force on center of mass :   0.185675E-02 -0.130829E-03 -0.760428E-02 eV/A
  | Net torque on center of mass:   0.611919E-02  0.428565E-03  0.655232E-02 eV
  Atomic forces after filtering:
  | Net force on center of mass :  -0.356812E-15 -0.267609E-15  0.535218E-15 eV/A
  | Net torque on center of mass:  -0.179376E-14  0.660859E-15  0.377634E-15 eV

  Energy and forces in a compact form:
  | Total energy uncorrected      :         -0.880257318036827E+04 eV
  | Total energy corrected        :         -0.880257318036827E+04 eV  <-- do not rely on this value for anything but (periodic) metals
  | Electronic free energy        :         -0.880257318036827E+04 eV
  Total atomic forces (unitary forces cleaned) [eV/Ang]:
  |   1          0.107170032372090E+00          0.405361396933651E+00         -0.408033911033296E+00
  |   2          0.493902817291787E+00          0.976775128102058E-01          0.325675727728614E+00
  |   3         -0.369091098204031E+00         -0.116188238882579E+00          0.889124586666708E+00
  |   4          0.127125154205828E+00         -0.162886952553187E+00         -0.220431589141308E+00
  |   5          0.296387478354990E+00          0.309876071433612E+00         -0.512934332984053E+00
  |   6          0.348435883771075E-01         -0.489032464143314E+00         -0.206886078400122E-01
  |   7         -0.213261208445972E+00         -0.577024883088303E-02         -0.281744826259012E-01
  |   8          0.623217730793031E-01         -0.326592060649994E-01          0.116380498582918E+00
  |   9          0.106445391197363E+00          0.149033211049275E+00         -0.111495589356056E+00
  |  10          0.951383500397733E+00          0.150584028349703E+01          0.206683494981366E+01
  |  11          0.454631757880050E+00          0.850554457543335E+00          0.109575993760499E+01
  |  12         -0.889409554579987E+00         -0.209623496416396E+01         -0.211987855674802E+01
  |  13         -0.116244963192626E+01         -0.415570858628189E+00         -0.107213863066825E+01

  ------------------------------------ 
  Start decomposition of the XC Energy 
  ------------------------------------ 
  X and C from original XC functional choice 
  Hartree-Fock Energy :          0.000000000 Ha              0.000000000 eV
  X Energy            :        -41.036187950 Ha          -1116.651488709 eV
  C Energy            :         -1.600869892 Ha            -43.561886160 eV
  Total XC Energy     :        -42.637057841 Ha          -1160.213374869 eV
  ------------------------------------ 
  LDA X and C from self-consistent density 
  X Energy LDA        :        -37.255158615 Ha          -1013.764445692 eV
  C Energy LDA        :         -3.138625956 Ha            -85.406357699 eV
  ------------------------------------ 
  End decomposition of the XC Energy 
  ------------------------------------ 

------------------------------------------------------------

------------------------------------------------------------------------------
  Final output of selected total energy values:

  The following output summarizes some interesting total energy values
  at the end of a run (AFTER all relaxation, molecular dynamics, etc.).

  | Total energy of the DFT / Hartree-Fock s.c.f. calculation      :          -8802.573180368 eV
  | Final zero-broadening corrected energy (caution - metals only) :          -8802.573180368 eV
  | For reference only, the value of 1 Hartree used in FHI-aims is :             27.211384500 eV

  Before relying on these values, please be sure to understand exactly which
  total energy value is referred to by a given number. Different objects may
  all carry the same name 'total energy'. Definitions:

  Total energy of the DFT / Hartree-Fock s.c.f. calculation:
  | Note that this energy does not include ANY quantities calculated after the
  | s.c.f. cycle, in particular not ANY RPA, MP2, etc. many-body perturbation terms.

  Final zero-broadening corrected energy:
  | For metallic systems only, a broadening of the occupation numbers at the Fermi
  | level can be extrapolated back to zero broadening by an electron-gas inspired
  | formula. For all systems that are not real metals, this value can be
  | meaningless and should be avoided.

------------------------------------------------------------------------------
  Methods described in the following list of references were used in this FHI-aims run.
  If you publish the results, please make sure to cite these reference if they apply.
  FHI-aims is an academic code, and for our developers (often, Ph.D. students
  and postdocs), scientific credit in the community is essential.
  Thank you for helping us!

  For any use of FHI-aims, please cite:

    Volker Blum, Ralf Gehrke, Felix Hanke, Paula Havu, Ville Havu,
    Xinguo Ren, Karsten Reuter, and Matthias Scheffler
    'Ab initio molecular simulations with numeric atom-centered orbitals'
    Computer Physics Communications 180, 2175-2196 (2009)
    http://dx.doi.org/10.1016/j.cpc.2009.06.022


  The scalable eigensolver library ELPA was used in your run.
  ELPA is essential especially for large systems on hundreds or thousands of CPUs.
  For ELPA, please cite:

    Andreas Marek, Volker Blum, Rainer Johanni, Ville Havu, Bruno Lang,
    Thomas Auckenthaler, Alexander Heinecke, Hans-Joachim Bungartz, and Hermann Lederer,
    'The ELPA Library - Scalable Parallel Eigenvalue Solutions
    for Electronic Structure Theory and Computational Science'
    The Journal of Physics: Condensed Matter 26, 213201 (2014).
    http://dx.doi.org/10.1088/0953-8984/26/21/213201


  The ELSI infrastructure was used in your run to solve the Kohn-Sham electronic structure.
  Please check out http://elsi-interchange.org to learn more.
  If scalability is important for your project, please acknowledge ELSI by citing:

    V. W-z. Yu, F. Corsetti, A. Garcia, W. P. Huhn, M. Jacquelin, W. Jia,
    B. Lange, L. Lin, J. Lu, W. Mi, A. Seifitokaldani, A. Vazquez-Mayagoitia,
    C. Yang, H. Yang, and V. Blum
    'ELSI: A unified software interface for Kohn-Sham electronic structure solvers'
    Computer Physics Communications 222, 267-285 (2018).
    http://dx.doi.org/10.1016/j.cpc.2017.09.007


  For the real-space grid partitioning and parallelization used in this calculation, please cite:

    Ville Havu, Volker Blum, Paula Havu, and Matthias Scheffler,
    'Efficient O(N) integration for all-electron electronic structure calculation'
    'using numerically tabulated basis functions'
    Journal of Computational Physics 228, 8367-8379 (2009).
    http://dx.doi.org/10.1016/j.jcp.2009.08.008

  Of course, there are many other important community references, e.g., those cited in the
  above references. Our list is limited to references that describe implementations in the
  FHI-aims code. The reason is purely practical (length of this list) - please credit others as well.

------------------------------------------------------------
          Leaving FHI-aims.
          Date     :  20200710, Time     :  144706.887

          Computational steps:
          | Number of self-consistency cycles          :           16
          | Number of SCF (re)initializations          :            1

          Detailed time accounting                     :  max(cpu_time)    wall_clock(cpu1)
          | Total time                                 :       22.825 s          22.903 s
          | Preparation time                           :        0.150 s           0.151 s
          | Boundary condition initalization           :        0.000 s           0.000 s
          | Grid partitioning                          :        0.113 s           0.114 s
          | Preloading free-atom quantities on grid    :        0.002 s           0.002 s
          | Free-atom superposition energy             :        0.085 s           0.085 s
          | Total time for integrations                :        8.657 s           8.670 s
          | Total time for solution of K.-S. equations :        0.037 s           0.039 s
          | Total time for density & force components  :        7.205 s           7.218 s
          | Total time for mixing                      :        0.224 s           0.228 s
          | Total time for Hartree multipole update    :        0.142 s           0.144 s
          | Total time for Hartree multipole sum       :        5.803 s           5.806 s
          | Total time for total energy evaluation     :        0.003 s           0.003 s
          | Total time for vdW correction              :        0.089 s           0.090 s

          Partial memory accounting:
          | Residual value for overall tracked memory usage across tasks :           0.000 MB (should be 0.000 MB)
          | Peak values for overall tracked memory usage (after allocating hessian_basis_wave):
          |   Minimum:        1.622 MB (on task 1)
          |   Maximum:        1.622 MB (on task 1)
          |   Average:        1.622 MB
          | Largest tracked array allocation (hessian_basis_wave):
          |   Minimum:        0.794 MB (on task 1)
          |   Maximum:        0.794 MB (on task 1)
          |   Average:        0.794 MB
          Note:  These values currently only include a subset of arrays which are explicitly tracked.
          The "true" memory usage will be greater.

          Have a nice day.
------------------------------------------------------------
