  MPI-parallelism will be employed.
------------------------------------------------------------
          Invoking FHI-aims ...
          Version 171221_1
          Compiled on 2019/09/09 at 14:39:39 on host puhti-login2.bullx.

          When using FHI-aims, please cite the following reference:

          Volker Blum, Ralf Gehrke, Felix Hanke, Paula Havu,
          Ville Havu, Xinguo Ren, Karsten Reuter, and Matthias Scheffler,
          'Ab Initio Molecular Simulations with Numeric Atom-Centered Orbitals',
          Computer Physics Communications 180, 2175-2196 (2009)

          For any questions about FHI-aims, please visit the aimsclub website
          with its forums and wiki. Contributions to both the forums and the
          wiki are warmly encouraged - they are for you, and everyone is welcome there.

------------------------------------------------------------



  Date     :  20200902, Time     :  103856.737
  Time zero on CPU 1             :   0.116820000000000E-01  s.
  Internal wall clock time zero  :           368275136.737  s.

  FHI-aims created a unique identifier for this run for later identification
  aims_uuid : 9F52AFAB-BC83-412E-AB38-848BF192B8B8

  Using        1 parallel tasks.
  Task        0 on host r18c48.bullx reporting.

  Performing system and environment tests:
  | Environment variable OMP_NUM_THREADS correctly set to 1.
  | Stacksize not measured: no C compiler
  | Checking for scalapack...
  | Testing pdtran()...
  | All pdtran() tests passed.

  Obtaining array dimensions for all initial allocations:
  
  -----------------------------------------------------------------------
  Parsing control.in (first pass over file, find array dimensions only).
  The contents of control.in will be repeated verbatim below
  unless switched off by setting 'verbatim_writeout .false.' .
  in the first line of control.in .
  -----------------------------------------------------------------------
  
  #########################################################################################
  #
  #  Volker Blum, FHI 2009 : Test run input file control.in for simple H2O
  #
  #########################################################################################
  #
  #  Physical model
  #
    xc                 pbe
    vdw_correction_hirshfeld
    spin               none
    relativistic       none
    charge             0.
  #
  #  SCF convergence
  #
    occupation_type    gaussian 0.01
    mixer              pulay
      n_max_pulay        10
      charge_mix_param   0.2
    sc_accuracy_rho    1E-5
    sc_accuracy_eev    1E-3
    sc_accuracy_etot   1E-6
    sc_accuracy_forces 1E-4
    sc_iter_limit      100
  #
  #  Relaxation
  #
  #  relax_geometry   bfgs 1.e-3
  #
  ################################################################################
  #
  #  FHI-aims code project
  #  VB, Fritz-Haber Institut, 2009
  #
  #  Suggested "light" defaults for H atom (to be pasted into control.in file)
  #  Be sure to double-check any results obtained with these settings for post-processing,
  #  e.g., with the "tight" defaults and larger basis sets.
  #
  ################################################################################
    species        H
  #     global species definitions
      nucleus             1
      mass                1.00794
  #
      l_hartree           4
  #
      cut_pot             3.5  1.5  1.0
      basis_dep_cutoff    1e-4
  #
      radial_base         24 5.0
      radial_multiplier   1
      angular_grids       specified
        division   0.2421   50
        division   0.3822  110
        division   0.4799  194
        division   0.5341  302
  #      division   0.5626  434
  #      division   0.5922  590
  #      division   0.6542  770
  #      division   0.6868 1202
  #      outer_grid  770
        outer_grid  302
  ################################################################################
  #
  #  Definition of "minimal" basis
  #
  ################################################################################
  #     valence basis states
      valence      1  s   1.
  #     ion occupancy
      ion_occ      1  s   0.5
  ################################################################################
  #
  #  Suggested additional basis functions. For production calculations,
  #  uncomment them one after another (the most important basis functions are
  #  listed first).
  #
  #  Basis constructed for dimers: 0.5 A, 0.7 A, 1.0 A, 1.5 A, 2.5 A
  #
  ################################################################################
  #  "First tier" - improvements: -1014.90 meV to -62.69 meV
       hydro 2 s 2.1
       hydro 2 p 3.5
  #  "Second tier" - improvements: -12.89 meV to -1.83 meV
  #     hydro 1 s 0.85
  #     hydro 2 p 3.7
  #     hydro 2 s 1.2
  #     hydro 3 d 7
  #  "Third tier" - improvements: -0.25 meV to -0.12 meV
  #     hydro 4 f 11.2
  #     hydro 3 p 4.8
  #     hydro 4 d 9
  #     hydro 3 s 3.2
  ################################################################################
  #
  #  FHI-aims code project
  #  VB, Fritz-Haber Institut, 2009
  #
  #  Suggested "light" defaults for C atom (to be pasted into control.in file)
  #  Be sure to double-check any results obtained with these settings for post-processing,
  #  e.g., with the "tight" defaults and larger basis sets.
  #
  ################################################################################
    species        C
  #     global species definitions
      nucleus             6
      mass                12.0107
  #
      l_hartree           4
  #
      cut_pot             3.5  1.5  1.0
      basis_dep_cutoff    1e-4
  #
      radial_base         34 5.0
      radial_multiplier   1
      angular_grids specified
        division   0.3326   50
        division   0.5710  110
        division   0.7727  194
        division   0.8772  302
  #      division   0.9334  434
  #      division   0.9625  590
  #      division   0.9924  770
  #      division   1.0230  974
  #      division   1.4589 1202
  #     outer_grid  974
       outer_grid 302
  ################################################################################
  #
  #  Definition of "minimal" basis
  #
  ################################################################################
  #     valence basis states
      valence      2  s   2.
      valence      2  p   2.
  #     ion occupancy
      ion_occ      2  s   1.
      ion_occ      2  p   1.
  ################################################################################
  #
  #  Suggested additional basis functions. For production calculations,
  #  uncomment them one after another (the most important basis functions are
  #  listed first).
  #
  #  Constructed for dimers: 1.0 A, 1.25 A, 1.5 A, 2.0 A, 3.0 A
  #
  ################################################################################
  #  "First tier" - improvements: -1214.57 meV to -155.61 meV
       hydro 2 p 1.7
       hydro 3 d 6
       hydro 2 s 4.9
  #  "Second tier" - improvements: -67.75 meV to -5.23 meV
  #     hydro 4 f 9.8
  #     hydro 3 p 5.2
  #     hydro 3 s 4.3
  #     hydro 5 g 14.4
  #     hydro 3 d 6.2
  #  "Third tier" - improvements: -2.43 meV to -0.60 meV
  #     hydro 2 p 5.6
  #     hydro 2 s 1.4
  #     hydro 3 d 4.9
  #     hydro 4 f 11.2
  #  "Fourth tier" - improvements: -0.39 meV to -0.18 meV
  #     hydro 2 p 2.1
  #     hydro 5 g 16.4
  #     hydro 4 d 13.2
  #     hydro 3 s 13.6
  #     hydro 4 f 17.6
  #  Further basis functions - improvements: -0.08 meV and below
  #     hydro 3 s 2
  #     hydro 3 p 6
  #     hydro 4 d 20
  ################################################################################
  #
  #  FHI-aims code project
  #  VB, Fritz-Haber Institut, 2009
  #
  #  Suggested "light" defaults for N atom (to be pasted into control.in file)
  #  Be sure to double-check any results obtained with these settings for post-processing,
  #  e.g., with the "tight" defaults and larger basis sets.
  #
  ################################################################################
    species        N
  #     global species definitions
      nucleus             7
      mass                14.0067
  #
      l_hartree           4
  #
      cut_pot             3.5  1.5  1.0
      basis_dep_cutoff    1e-4
  #
      radial_base         35 5.0
      radial_multiplier   1
      angular_grids       specified
        division   0.2599   50
        division   0.4601  110
        division   0.5885  194
        division   0.6503  302
  #      division   0.6939  434
  #      division   0.7396  590
  #      division   0.7632  770
  #      division   0.8122  974
  #      division   1.1604 1202
  #      outer_grid  974
        outer_grid  302
  ################################################################################
  #
  #  Definition of "minimal" basis
  #
  ################################################################################
  #     valence basis states
      valence      2  s   2.
      valence      2  p   3.
  #     ion occupancy
      ion_occ      2  s   1.
      ion_occ      2  p   2.
  ################################################################################
  #
  #  Suggested additional basis functions. For production calculations,
  #  uncomment them one after another (the most important basis functions are
  #  listed first).
  #
  #  Constructed for dimers: 1.0 A, 1.1 A, 1.5 A, 2.0 A, 3.0 A
  #
  ################################################################################
  #  "First tier" - improvements: -1193.42 meV to -220.60 meV
       hydro 2 p 1.8
       hydro 3 d 6.8
       hydro 3 s 5.8
  #  "Second tier" - improvements: -80.21 meV to -6.86 meV
  #     hydro 4 f 10.8
  #     hydro 3 p 5.8
  #     hydro 1 s 0.8
  #     hydro 5 g 16
  #     hydro 3 d 4.9
  #  "Third tier" - improvements: -4.29 meV to -0.53 meV
  #     hydro 3 s 16
  #     ionic 2 p auto
  #     hydro 3 d 6.6
  #     hydro 4 f 11.6
  #  "Fourth tier" - improvements: -0.75 meV to -0.25 meV
  #     hydro 2 p 4.5
  #     hydro 2 s 2.4
  #     hydro 5 g 14.4
  #     hydro 4 d 14.4
  #     hydro 4 f 16.8
  # Further basis functions - -0.21 meV and below
  #     hydro 3 p 14.8
  #     hydro 3 s 4.4
  #     hydro 3 d 19.6
  #     hydro 5 g 12.8
  ################################################################################
  #
  #  FHI-aims code project
  #  VB, Fritz-Haber Institut, 2009
  #
  #  Suggested "light" defaults for O atom (to be pasted into control.in file)
  #  Be sure to double-check any results obtained with these settings for post-processing,
  #  e.g., with the "tight" defaults and larger basis sets.
  #
  ################################################################################
    species        O
  #     global species definitions
      nucleus             8
      mass                15.9994
  #
      l_hartree           4
  #
      cut_pot             3.5  1.5  1.0
      basis_dep_cutoff    1e-4
  #
      radial_base         36 5.0
      radial_multiplier   1
       angular_grids specified
        division   0.2659   50
        division   0.4451  110
        division   0.6052  194
        division   0.7543  302
  #      division   0.8014  434
  #      division   0.8507  590
  #      division   0.8762  770
  #      division   0.9023  974
  #      division   1.2339 1202
  #      outer_grid 974
        outer_grid 302
  ################################################################################
  #
  #  Definition of "minimal" basis
  #
  ################################################################################
  #     valence basis states
      valence      2  s   2.
      valence      2  p   4.
  #     ion occupancy
      ion_occ      2  s   1.
      ion_occ      2  p   3.
  ################################################################################
  #
  #  Suggested additional basis functions. For production calculations,
  #  uncomment them one after another (the most important basis functions are
  #  listed first).
  #
  #  Constructed for dimers: 1.0 A, 1.208 A, 1.5 A, 2.0 A, 3.0 A
  #
  ################################################################################
  #  "First tier" - improvements: -699.05 meV to -159.38 meV
       hydro 2 p 1.8
       hydro 3 d 7.6
       hydro 3 s 6.4
  #  "Second tier" - improvements: -49.91 meV to -5.39 meV
  #     hydro 4 f 11.6
  #     hydro 3 p 6.2
  #     hydro 3 d 5.6
  #     hydro 5 g 17.6
  #     hydro 1 s 0.75
  #  "Third tier" - improvements: -2.83 meV to -0.50 meV
  #     ionic 2 p auto
  #     hydro 4 f 10.8
  #     hydro 4 d 4.7
  #     hydro 2 s 6.8
  #  "Fourth tier" - improvements: -0.40 meV to -0.12 meV
  #     hydro 3 p 5
  #     hydro 3 s 3.3
  #     hydro 5 g 15.6
  #     hydro 4 f 17.6
  #     hydro 4 d 14
  # Further basis functions - -0.08 meV and below
  #     hydro 3 s 2.1
  #     hydro 4 d 11.6
  #     hydro 3 p 16
  #     hydro 2 s 17.2
  
  -----------------------------------------------------------------------
  Completed first pass over input file control.in .
  -----------------------------------------------------------------------
  
  
  -----------------------------------------------------------------------
  Parsing geometry.in (first pass over file, find array dimensions only).
  The contents of geometry.in will be repeated verbatim below
  unless switched off by setting 'verbatim_writeout .false.' .
  in the first line of geometry.in .
  -----------------------------------------------------------------------
  
  atom  0.00000 0.00000 0.00000 C
  atom  1.09300 0.00000 0.00000 H
  atom  -0.47961 0.00000 -1.41207 N
  atom  0.27877 0.32102 -2.01509 H
  atom  -0.75277 -0.94752 -1.66449 H
  atom  -0.49584 1.26211 0.72868 C
  atom  -1.58789 1.28919 0.74431 H
  atom  -0.13407 1.27425 1.75947 H
  atom  -0.13407 2.16087 0.22380 H
  atom  -0.39425 -1.28861 0.74398 C
  atom  -0.10189 -1.56493 1.88303 O
  atom  -1.10210 -2.13717 0.06896 O
  atom  -0.37886 -2.57596 -0.40996 H
  
  -----------------------------------------------------------------------
  Completed first pass over input file geometry.in .
  -----------------------------------------------------------------------
  

  Basic array size parameters:
  | Number of species                 :        4
  | Number of atoms                   :       13
  | Max. basis fn. angular momentum   :        2
  | Max. atomic/ionic basis occupied n:        2
  | Max. number of basis fn. types    :        2
  | Max. radial fns per species/type  :        3
  | Max. logarithmic grid size        :     1301
  | Max. radial integration grid size :       36
  | Max. angular integration grid size:      302
  | Max. angular grid division number :        8
  | Radial grid for Hartree potential :     1301
  | Number of spin channels           :        1

------------------------------------------------------------
          Reading file control.in.
------------------------------------------------------------
  XC: Using PBE gradient-corrected functionals.
  Spin treatment: No spin polarisation.
  Non-relativistic treatment of kinetic energy.
  Charge =   0.000000E+00: Neutral system requested explicitly.
  Occupation type: Gaussian broadening, width =   0.100000E-01 eV.
  Using pulay charge density mixing.
  Pulay mixing - number of memorized iterations:   10
  Charge density mixing - mixing parameter:     0.2000
  Convergence accuracy of self-consistent charge density:  0.1000E-04
  Convergence accuracy of sum of eigenvalues:  0.1000E-02
  Convergence accuracy of total energy:  0.1000E-05
  Convergence accuracy of forces:  0.1000E-03
  Maximum number of s.-c. iterations  :   100
 
  Reading configuration options for species H                   .
  | Found nuclear charge :   1.0000
  | Found atomic mass :    1.00794000000000      amu
  | Found l_max for Hartree potential  :   4
  | Found cutoff potl. onset [A], width [A], scale factor :    3.50000    1.50000    1.00000
  | Threshold for basis-dependent cutoff potential is   0.100000E-03
  | Found data for basic radial integration grid :    24 points, outermost radius =    5.000 A
  | Found multiplier for basic radial grid :   1
  | Found angular grid specification: user-specified.
  | Specified grid contains     5 separate shells.
  | Check grid settings after all constraints further below.
  | Found free-atom valence shell :  1 s   1.000
  | No ionic wave fns used. Skipping ion_occ.
  | Found hydrogenic basis function :  2 s   2.100
  | Found hydrogenic basis function :  2 p   3.500
  Species H                   : Missing cutoff potential type.
  Defaulting to exp(1/x)/(1-x)^2 type cutoff potential.
  Species H : No 'logarithmic' tag. Using default grid for free atom:
  | Default logarithmic grid data [bohr] : 0.1000E-03 0.1000E+03 0.1012E+01
  Species H : On-site basis accuracy parameter (for Gram-Schmidt orthonormalisation) not specified.
  Using default value basis_acc =  0.1000000E-03.
  Species H                   : Using default innermost maximum threshold i_radial=  2 for radial functions.
  Species H                   : Default cutoff onset for free atom density etc. : 0.35000000E+01 AA.
  Species H                   : Basic radial grid will be enhanced according to radial_multiplier =   1, to contain    24 grid points.
 
  Reading configuration options for species C                   .
  | Found nuclear charge :   6.0000
  | Found atomic mass :    12.0107000000000      amu
  | Found l_max for Hartree potential  :   4
  | Found cutoff potl. onset [A], width [A], scale factor :    3.50000    1.50000    1.00000
  | Threshold for basis-dependent cutoff potential is   0.100000E-03
  | Found data for basic radial integration grid :    34 points, outermost radius =    5.000 A
  | Found multiplier for basic radial grid :   1
  | Found angular grid specification: user-specified.
  | Specified grid contains     5 separate shells.
  | Check grid settings after all constraints further below.
  | Found free-atom valence shell :  2 s   2.000
  | Found free-atom valence shell :  2 p   2.000
  | No ionic wave fns used. Skipping ion_occ.
  | No ionic wave fns used. Skipping ion_occ.
  | Found hydrogenic basis function :  2 p   1.700
  | Found hydrogenic basis function :  3 d   6.000
  | Found hydrogenic basis function :  2 s   4.900
  Species C                   : Missing cutoff potential type.
  Defaulting to exp(1/x)/(1-x)^2 type cutoff potential.
  Species C : No 'logarithmic' tag. Using default grid for free atom:
  | Default logarithmic grid data [bohr] : 0.1000E-03 0.1000E+03 0.1012E+01
  Species C : On-site basis accuracy parameter (for Gram-Schmidt orthonormalisation) not specified.
  Using default value basis_acc =  0.1000000E-03.
  Species C                   : Using default innermost maximum threshold i_radial=  2 for radial functions.
  Species C                   : Default cutoff onset for free atom density etc. : 0.35000000E+01 AA.
  Species C                   : Basic radial grid will be enhanced according to radial_multiplier =   1, to contain    34 grid points.
 
  Reading configuration options for species N                   .
  | Found nuclear charge :   7.0000
  | Found atomic mass :    14.0067000000000      amu
  | Found l_max for Hartree potential  :   4
  | Found cutoff potl. onset [A], width [A], scale factor :    3.50000    1.50000    1.00000
  | Threshold for basis-dependent cutoff potential is   0.100000E-03
  | Found data for basic radial integration grid :    35 points, outermost radius =    5.000 A
  | Found multiplier for basic radial grid :   1
  | Found angular grid specification: user-specified.
  | Specified grid contains     5 separate shells.
  | Check grid settings after all constraints further below.
  | Found free-atom valence shell :  2 s   2.000
  | Found free-atom valence shell :  2 p   3.000
  | No ionic wave fns used. Skipping ion_occ.
  | No ionic wave fns used. Skipping ion_occ.
  | Found hydrogenic basis function :  2 p   1.800
  | Found hydrogenic basis function :  3 d   6.800
  | Found hydrogenic basis function :  3 s   5.800
  Species N                   : Missing cutoff potential type.
  Defaulting to exp(1/x)/(1-x)^2 type cutoff potential.
  Species N : No 'logarithmic' tag. Using default grid for free atom:
  | Default logarithmic grid data [bohr] : 0.1000E-03 0.1000E+03 0.1012E+01
  Species N : On-site basis accuracy parameter (for Gram-Schmidt orthonormalisation) not specified.
  Using default value basis_acc =  0.1000000E-03.
  Species N                   : Using default innermost maximum threshold i_radial=  2 for radial functions.
  Species N                   : Default cutoff onset for free atom density etc. : 0.35000000E+01 AA.
  Species N                   : Basic radial grid will be enhanced according to radial_multiplier =   1, to contain    35 grid points.
 
  Reading configuration options for species O                   .
  | Found nuclear charge :   8.0000
  | Found atomic mass :    15.9994000000000      amu
  | Found l_max for Hartree potential  :   4
  | Found cutoff potl. onset [A], width [A], scale factor :    3.50000    1.50000    1.00000
  | Threshold for basis-dependent cutoff potential is   0.100000E-03
  | Found data for basic radial integration grid :    36 points, outermost radius =    5.000 A
  | Found multiplier for basic radial grid :   1
  | Found angular grid specification: user-specified.
  | Specified grid contains     5 separate shells.
  | Check grid settings after all constraints further below.
  | Found free-atom valence shell :  2 s   2.000
  | Found free-atom valence shell :  2 p   4.000
  | No ionic wave fns used. Skipping ion_occ.
  | No ionic wave fns used. Skipping ion_occ.
  | Found hydrogenic basis function :  2 p   1.800
  | Found hydrogenic basis function :  3 d   7.600
  | Found hydrogenic basis function :  3 s   6.400
  Species O                   : Missing cutoff potential type.
  Defaulting to exp(1/x)/(1-x)^2 type cutoff potential.
  Species O : No 'logarithmic' tag. Using default grid for free atom:
  | Default logarithmic grid data [bohr] : 0.1000E-03 0.1000E+03 0.1012E+01
  Species O : On-site basis accuracy parameter (for Gram-Schmidt orthonormalisation) not specified.
  Using default value basis_acc =  0.1000000E-03.
  Species O                   : Using default innermost maximum threshold i_radial=  2 for radial functions.
  Species O                   : Default cutoff onset for free atom density etc. : 0.35000000E+01 AA.
  Species O                   : Basic radial grid will be enhanced according to radial_multiplier =   1, to contain    36 grid points.
 
  Finished reading input file 'control.in'. Consistency checks are next.
 
  MPI_IN_PLACE appears to work with this MPI implementation.
  | Keeping use_mpi_in_place .true. (see manual).
  Target number of points in a grid batch is not set. Defaulting to  100
  Method for grid partitioning is not set. Defaulting to parallel hash+maxmin partitioning.
  Batch size limit is not set. Defaulting to    200
  By default, will store active basis functions for each batch.
  If in need of memory, prune_basis_once .false. can be used to disable this option.
  communication_type for Hartree potential was not specified.
  Defaulting to calc_hartree .
  Pulay mixer: Number of initial linear mixing iterations not set.
  Defaulting to    0 iterations.
  Work space size for distributed Hartree potential not set.
  Defaulting to   0.200000E+03 MB.
  Algorithm-dependent basis array size parameters:
  | n_max_pulay                         :       10
  Presetting      1001 iterations before the initial mixing cycle
  is restarted anyway using the sc_init_iter criterion / keyword.
  Presetting a factor      1.000 between actual scf density residual
  and density convergence criterion sc_accuracy_rho below which sc_init_iter
  takes no effect.
  Geometry relaxation not requested: no relaxation will be performed.
  Handling of forces: Unphysical translation and rotation will be removed from forces.
  No accuracy limit for integral partition fn. given. Defaulting to  0.1000E-14.
  No threshold value for u(r) in integrations given. Defaulting to  0.1000E-05.
  No accuracy for occupation numbers given. Defaulting to  0.1000E-12.
  No threshold value for occupation numbers given. Defaulting to  0.0000E+00.
  No accuracy for fermi level given. Defaulting to  0.1000E-19.
  Maximum # of iterations to find E_F not set. Defaulting to  200.
  Preferred method for the eigenvalue solver ('KS_method') not specified in 'control.in'.
  Defaulting to serial version, 'lapack_fast'.
  Will not use alltoall communication since running on < 1024 CPUs.
  Threshold for basis singularities not set.
  Default threshold for basis singularities:  0.1000E-04
  partition_type (choice of integration weights) for integrals was not specified.
  | Using a version of the partition function of Stratmann and coworkers ('stratmann_smoother').
  | At each grid point, the set of atoms used to build the partition table is smoothly restricted to
  | only those atoms whose free-atom density would be non-zero at that grid point.
  Partitioning for Hartree potential was not defined. Using partition_type for integrals.
  | Adjusted default value of keyword multip_moments_threshold to:       0.10000000E-11
  | This value may affect high angular momentum components of the Hartree potential in periodic systems.
  No q(lm)/r^(l+1) cutoff set for long-range Hartree potential.
  | Using default value of  0.100000E-09 .
  | Verify using the multipole_threshold keyword.
  Defaulting to new monopole extrapolation.
  Density update method: automatic selection selected.
------------------------------------------------------------


------------------------------------------------------------
          Reading geometry description geometry.in.
------------------------------------------------------------
  Input structure read successfully.
  The structure contains       13 atoms,  and a total of         48.000 electrons.

  Input geometry:
  | No unit cell requested.
  | Atomic structure:
  |       Atom                x [A]            y [A]            z [A]
  |    1: Species C             0.00000000        0.00000000        0.00000000
  |    2: Species H             1.09300000        0.00000000        0.00000000
  |    3: Species N            -0.47961000        0.00000000       -1.41207000
  |    4: Species H             0.27877000        0.32102000       -2.01509000
  |    5: Species H            -0.75277000       -0.94752000       -1.66449000
  |    6: Species C            -0.49584000        1.26211000        0.72868000
  |    7: Species H            -1.58789000        1.28919000        0.74431000
  |    8: Species H            -0.13407000        1.27425000        1.75947000
  |    9: Species H            -0.13407000        2.16087000        0.22380000
  |   10: Species C            -0.39425000       -1.28861000        0.74398000
  |   11: Species O            -0.10189000       -1.56493000        1.88303000
  |   12: Species O            -1.10210000       -2.13717000        0.06896000
  |   13: Species H            -0.37886000       -2.57596000       -0.40996000
  |

  | The smallest distance between any two atoms is         0.97209934 AA.
  |
  | The first atom of this pair is atom number                     12 .
  | The second atom of this pair is atom number                    13 .

  Number of empty states per atom not set in control.in - providing a guess from actual geometry.
  | Total number of empty states used during s.c.f. cycle:       29
  If you use a very high smearing, use empty_states (per atom!) in control.in to increase this value.

  Structure-dependent array size parameters: 
  | Maximum number of distinct radial functions  :       21
  | Maximum number of basis functions            :      119
  | Number of Kohn-Sham states (occupied + empty):       53
------------------------------------------------------------

------------------------------------------------------------
          Preparing all fixed parts of the calculation.
------------------------------------------------------------
  Determining machine precision:
    2.225073858507201E-308
  Setting up grids for atomic and cluster calculations.

  Creating wave function, potential, and density for free atoms.

  Species: H

  List of occupied orbitals and eigenvalues:
    n    l              occ      energy [Ha]    energy [eV]
    1    0           1.0000        -0.237589        -6.4651


  Species: C

  List of occupied orbitals and eigenvalues:
    n    l              occ      energy [Ha]    energy [eV]
    1    0           2.0000       -10.038835      -273.1706
    2    0           2.0000        -0.502696       -13.6791
    2    1           2.0000        -0.191971        -5.2238


  Species: N

  List of occupied orbitals and eigenvalues:
    n    l              occ      energy [Ha]    energy [eV]
    1    0           2.0000       -14.128000      -384.4424
    2    0           2.0000        -0.681077       -18.5330
    2    1           3.0000        -0.259788        -7.0692


  Species: O

  List of occupied orbitals and eigenvalues:
    n    l              occ      energy [Ha]    energy [eV]
    1    0           2.0000       -18.898188      -514.2459
    2    0           2.0000        -0.878505       -23.9053
    2    1           4.0000        -0.331779        -9.0282

  Creating fixed part of basis set: Ionic, confined, hydrogenic.
 
  H                    hydrogenic:
 
  List of hydrogenic basis orbitals: 
    n    l      effective z      eigenvalue [eV]  inner max. [A]     outer max. [A]     outer radius [A]   
    2    0         2.100000       -14.9728           0.193243           1.317208           4.583499
    2    1         3.500000       -41.6669           0.602369           0.602369           3.723403
 
 
  C                    hydrogenic:
 
  List of hydrogenic basis orbitals: 
    n    l      effective z      eigenvalue [eV]  inner max. [A]     outer max. [A]     outer radius [A]   
    2    1         1.700000        -9.7616           1.230570           1.230570           4.607917
    3    2         6.000000       -54.4224           0.792453           0.792453           3.883070
    2    0         4.900000       -81.6679           0.082559           0.562749           3.078220
 
 
  N                    hydrogenic:
 
  List of hydrogenic basis orbitals: 
    n    l      effective z      eigenvalue [eV]  inner max. [A]     outer max. [A]     outer radius [A]   
    2    1         1.800000       -10.9749           1.177451           1.177451           4.573712
    3    2         6.800000       -69.9026           0.704619           0.704619           3.538137
    3    0         5.800000       -50.8545           0.067388           1.191934           4.250239
 
 
  O                    hydrogenic:
 
  List of hydrogenic basis orbitals: 
    n    l      effective z      eigenvalue [eV]  inner max. [A]     outer max. [A]     outer radius [A]   
    2    1         1.800000       -10.9749           1.164242           1.164242           4.578029
    3    2         7.600000       -87.3180           0.624125           0.624125           3.251020
    3    0         6.400000       -61.9207           0.061167           1.081902           4.001998
 

  Adding cutoff potential to free-atom effective potential.
  Creating atomic-like basis functions for current effective potential.

  Species H                   :

  List of atomic basis orbitals and eigenvalues:
    n    l      energy [Ha]    energy [eV]    outer radius [A]
    1    0        -0.237589        -6.4651       4.527807


  Species C                   :

  List of atomic basis orbitals and eigenvalues:
    n    l      energy [Ha]    energy [eV]    outer radius [A]
    1    0       -10.038835      -273.1706       1.934409
    2    0        -0.502696       -13.6791       4.496620
    2    1        -0.191971        -5.2238       4.551928


  Species N                   :

  List of atomic basis orbitals and eigenvalues:
    n    l      energy [Ha]    energy [eV]    outer radius [A]
    1    0       -14.128000      -384.4424       1.637919
    2    0        -0.681077       -18.5330       4.463241
    2    1        -0.259788        -7.0692       4.518138


  Species O                   :

  List of atomic basis orbitals and eigenvalues:
    n    l      energy [Ha]    energy [eV]    outer radius [A]
    1    0       -18.898188      -514.2459       1.415765
    2    0        -0.878505       -23.9053       4.413171
    2    1        -0.331779        -9.0282       4.522403

  Assembling full basis from fixed parts.
  | Species H :   atomic orbital   1 s accepted.
  | Species H :    hydro orbital   2 s accepted.
  | Species H :    hydro orbital   2 p accepted.
  | Species C :   atomic orbital   1 s accepted.
  | Species C :    hydro orbital   2 s accepted.
  | Species C :   atomic orbital   2 s accepted.
  | Species C :   atomic orbital   2 p accepted.
  | Species C :    hydro orbital   2 p accepted.
  | Species C :    hydro orbital   3 d accepted.
  | Species N :   atomic orbital   1 s accepted.
  | Species N :    hydro orbital   3 s accepted.
  | Species N :   atomic orbital   2 s accepted.
  | Species N :   atomic orbital   2 p accepted.
  | Species N :    hydro orbital   2 p accepted.
  | Species N :    hydro orbital   3 d accepted.
  | Species O :   atomic orbital   1 s accepted.
  | Species O :    hydro orbital   3 s accepted.
  | Species O :   atomic orbital   2 s accepted.
  | Species O :   atomic orbital   2 p accepted.
  | Species O :    hydro orbital   2 p accepted.
  | Species O :    hydro orbital   3 d accepted.
 
  Basis size parameters after reduction:
  | Total number of radial functions:       21
  | Total number of basis functions :      119
 
  Per-task memory consumption for arrays in subroutine allocate_ext:
  |           5.250512MB.
  Testing on-site integration grid accuracy.
  |  Species  Function  <phi|h_atom|phi> (log., in eV)  <phi|h_atom|phi> (rad., in eV)
           1        1                 -6.4663192853                 -6.4651273558
           1        2                 13.7111246313                 13.7170609718
           1        3                 25.2673269279                 25.2674696378
           2        4               -273.1705927641               -273.1705631568
           2        5                -10.7109323383                -10.7107120029
           2        6                 17.4381822266                 17.4352413244
           2        7                 -5.2255326521                 -5.2270484734
           2        8                  8.6835629259                  8.6603288385
           2        9                 27.4952418996                 27.4953360207
           3       10               -384.4424306495               -384.4423701208
           3       11                 12.5842251816                 12.5842222903
           3       12                -15.7264628251                -15.7264433455
           3       13                 -7.0696854293                 -7.0701769954
           3       14                  8.8090390882                  8.7901077751
           3       15                 35.9586762123                 35.9588528632
           4       16               -514.2458688638               -514.2457643834
           4       17                 15.1795651126                 15.1795290741
           4       18                -21.5359799773                -21.5360846186
           4       19                 -9.0283069236                 -9.0284644067
           4       20                  8.3027758564                  8.2834874195
           4       21                 45.8339351984                 45.8338762259

  Preparing densities etc. for the partition functions (integrals / Hartree potential).

  Preparations completed.
  max(cpu_time)          :      0.147 s.
  Wall clock time (cpu1) :      0.148 s.
------------------------------------------------------------

------------------------------------------------------------
          Begin self-consistency loop: Initialization.

          Date     :  20200902, Time     :  103856.905
------------------------------------------------------------

  Initializing index lists of integration centers etc. from given atomic structure:
  | Number of centers in hartree potential         :        13
  | Number of centers in hartree multipole         :        13
  | Number of centers in electron density summation:        13
  | Number of centers in basis integrals           :        13
  | Number of centers in integrals                 :        13
  | Number of centers in hamiltonian               :        13
  Partitioning the integration grid into batches with parallel hashing+maxmin method.
  | Number of batches:      955
  | Maximal batch size:     138
  | Minimal batch size:      66
  | Average batch size:      72.928
  | Standard deviation of batch sizes:      17.643

  Integration load balanced across     1 MPI tasks.
  Work distribution over tasks is as follows:
  Task     0 has      69646 integration points.
  Initializing partition tables, free-atom densities, potentials, etc. across the integration grid (initialize_grid_storage).
  | initialize_grid_storage: Actual outermost partition radius vs. multipole_radius_free
  | (-- VB: in principle, multipole_radius_free should be larger, hence this output)
  | Species        1: Confinement radius =              4.999999999999999 AA, multipole_radius_free =              5.054417573612229 AA.
  | Species        1: outer_partition_radius set to              5.054417573612229 AA .
  | Species        2: Confinement radius =              4.999999999999999 AA, multipole_radius_free =              5.019602836301480 AA.
  | Species        2: outer_partition_radius set to              5.019602836301480 AA .
  | Species        3: Confinement radius =              4.999999999999999 AA, multipole_radius_free =              5.043624274424571 AA.
  | Species        3: outer_partition_radius set to              5.043624274424571 AA .
  | Species        4: Confinement radius =              4.999999999999999 AA, multipole_radius_free =              5.048384829883283 AA.
  | Species        4: outer_partition_radius set to              5.048384829883283 AA .
  | Original list of interatomic distances with          13 x         13 entries is created.
  | Net number of integration points:    69646
  | of which are non-zero points    :    59527
  Renormalizing the initial density to the exact electron count on the 3D integration grid.
  | Initial density: Formal number of electrons (from input files) :      48.0000000000
  | Integrated number of electrons on 3D grid     :      48.0000534609
  | Charge integration error                      :       0.0000534609
  | Normalization factor for density and gradient :       0.9999988862
  Obtaining max. number of non-zero basis functions in each batch (get_n_compute_maxes).
  | Maximal number of non-zero basis functions:      119 in task     0
  Selecting the method for density update.
  Loop over occupied states selected for charge density update.
  Allocating        0.050 MB for KS_eigenvector
  Integrating Hamiltonian matrix: batch-based integration.
  Time summed over all CPUs for integration: real work        0.493 s, elapsed        0.493 s
  Integrating overlap matrix.
  Time summed over all CPUs for integration: real work        0.210 s, elapsed        0.210 s

  Updating Kohn-Sham eigenvalues and eigenvectors using ELSI and the ELPA eigensolver.
  Overlap matrix is nonsingular
  | Lowest eigenvalue of overlap  :  0.47E-02
  | Highest eigenvalue of overlap :  0.61E+01
  Finished singularity check of overlap matrix
  | Time :     0.002 s
  Finished Cholesky decomposition
  | Time :     0.000 s
  Finished transformation to standard eigenproblem
  | Time :     0.000 s
  Starting LAPACK eigensolver
  Finished solving standard eigenproblem
  | Time :     0.002 s
  Finished back-transformation of eigenvectors
  | Time :     0.000 s

  Obtaining occupation numbers and chemical potential using ELSI.
  | Chemical potential (Fermi level):    -9.51906920eV
  Writing Kohn-Sham eigenvalues.

  State    Occupation    Eigenvalue [Ha]    Eigenvalue [eV]
      1       2.00000         -19.008333         -517.24305
      2       2.00000         -18.977265         -516.39766
      3       2.00000         -14.245863         -387.64966
      4       2.00000         -10.166589         -276.64697
      5       2.00000         -10.141356         -275.96033
      6       2.00000         -10.132131         -275.70931
      7       2.00000          -1.183999          -32.21826
      8       2.00000          -1.098429          -29.88979
      9       2.00000          -0.990675          -26.95765
     10       2.00000          -0.861700          -23.44805
     11       2.00000          -0.752296          -20.47103
     12       2.00000          -0.682218          -18.56410
     13       2.00000          -0.636297          -17.31453
     14       2.00000          -0.608518          -16.55861
     15       2.00000          -0.578640          -15.74560
     16       2.00000          -0.569918          -15.50825
     17       2.00000          -0.554876          -15.09894
     18       2.00000          -0.530067          -14.42385
     19       2.00000          -0.517837          -14.09105
     20       2.00000          -0.502121          -13.66341
     21       2.00000          -0.460164          -12.52171
     22       2.00000          -0.427734          -11.63924
     23       2.00000          -0.401819          -10.93405
     24       2.00000          -0.388966          -10.58430
     25       0.00000          -0.162856           -4.43154
     26       0.00000          -0.067310           -1.83159
     27       0.00000          -0.029646           -0.80671
     28       0.00000          -0.025297           -0.68837
     29       0.00000           0.002304            0.06270
     30       0.00000           0.010370            0.28217
     31       0.00000           0.021108            0.57438
     32       0.00000           0.032330            0.87976
     33       0.00000           0.048176            1.31093
     34       0.00000           0.071519            1.94613
     35       0.00000           0.086017            2.34064
     36       0.00000           0.131086            3.56703
     37       0.00000           0.156363            4.25485
     38       0.00000           0.197713            5.38004
     39       0.00000           0.216348            5.88712
     40       0.00000           0.225253            6.12944
     41       0.00000           0.254554            6.92678
     42       0.00000           0.275251            7.48996
     43       0.00000           0.288001            7.83689
     44       0.00000           0.316498            8.61235
     45       0.00000           0.332154            9.03837
     46       0.00000           0.352933            9.60379
     47       0.00000           0.368561           10.02905
     48       0.00000           0.408296           11.11029
     49       0.00000           0.419102           11.40433
     50       0.00000           0.492005           13.38813
     51       0.00000           0.510192           13.88303
     52       0.00000           0.522807           14.22630
     53       0.00000           0.567812           15.45096

  Highest occupied state (VBM) at    -10.58430467 eV
  | Occupation number:      2.00000000

  Lowest unoccupied state (CBM) at    -4.43154200 eV
  | Occupation number:      0.00000000

  Overall HOMO-LUMO gap:      6.15276266 eV.
  Calculating total energy contributions from superposition of free atom densities.

  Total energy components:
  | Sum of eigenvalues            :        -188.83562440 Ha       -5138.47878293 eV
  | XC energy correction          :         -41.79028880 Ha       -1137.17161688 eV
  | XC potential correction       :          53.72227441 Ha        1461.85746510 eV
  | Free-atom electrostatic energy:        -146.85145330 Ha       -3996.03136008 eV
  | Hartree energy correction     :           0.00000000 Ha           0.00000000 eV
  | vdW energy correction         :           0.00000000 Ha           0.00000000 eV
  | Entropy correction            :           0.00000000 Ha           0.00000000 eV
  | ---------------------------
  | Total energy                  :        -323.75509209 Ha       -8809.82429480 eV
  | Total energy, T -> 0          :        -323.75509209 Ha       -8809.82429480 eV  <-- do not rely on this value for anything but (periodic) metals
  | Electronic free energy        :        -323.75509209 Ha       -8809.82429480 eV

  Derived energy quantities:
  | Kinetic energy                :         320.50416324 Ha        8721.36201973 eV
  | Electrostatic energy          :        -602.46896653 Ha      -16394.01469764 eV
  | Energy correction for multipole
  | error in Hartree potential    :           0.00000000 Ha           0.00000000 eV
  | Sum of eigenvalues per atom                           :        -395.26759869 eV
  | Total energy (T->0) per atom                          :        -677.67879191 eV  <-- do not rely on this value for anything but (periodic) metals
  | Electronic free energy per atom                       :        -677.67879191 eV
  Initialize hartree_potential_storage
  Max. number of atoms included in rho_multipole:           13

  End scf initialization - timings             :  max(cpu_time)    wall_clock(cpu1)
  | Time for scf. initialization               :        1.148 s           1.150 s
  | Boundary condition initialization          :        0.000 s           0.000 s
  | Integration                                :        0.704 s           0.704 s
  | Solution of K.-S. eqns.                    :        0.004 s           0.004 s
  | Grid partitioning                          :        0.112 s           0.113 s
  | Preloading free-atom quantities on grid    :        0.002 s           0.003 s
  | Free-atom superposition energy             :        0.085 s           0.085 s
  | Total energy evaluation                    :        0.000 s           0.000 s

  Partial memory accounting:
  | Current value for overall tracked memory usage on task 0  :           0.165 MB
  | Peak value for overall tracked memory usage on task 0     :           0.676 MB after allocating wave
  | Largest tracked array allocation on task 0 so far         :           0.131 MB  when allocating H_times_psi
  Note:  These values currently only include a subset of arrays which are explicitly tracked.
  The "true" memory usage will be greater.
------------------------------------------------------------

------------------------------------------------------------
          Begin self-consistency iteration #    1

  Date     :  20200902, Time     :  103858.055
------------------------------------------------------------
  Evaluating new KS density.
  Integration grid: deviation in total charge (<rho> - N_e) =   5.684342E-14
  Pulay mixing of updated and previous charge densities.

  Evaluating partitioned Hartree potential by multipole expansion.
  | Analytical far-field extrapolation by fixed multipoles:
  | Hartree multipole sum: apparent total charge =  -0.533925E-04
  Summing up the Hartree potential.
  Time summed over all CPUs for potential: real work        0.283 s, elapsed        0.283 s
  | RMS charge density error from multipole expansion :   0.593982E-02

  Integrating Hamiltonian matrix: batch-based integration.
  Time summed over all CPUs for integration: real work        0.493 s, elapsed        0.493 s

  Updating Kohn-Sham eigenvalues and eigenvectors using ELSI and the ELPA eigensolver.
  Finished Cholesky decomposition
  | Time :     0.000 s
  Finished transformation to standard eigenproblem
  | Time :     0.000 s
  Starting LAPACK eigensolver
  Finished solving standard eigenproblem
  | Time :     0.001 s
  Finished back-transformation of eigenvectors
  | Time :     0.000 s

  Obtaining occupation numbers and chemical potential using ELSI.
  | Chemical potential (Fermi level):    -4.44104885eV
  Writing Kohn-Sham eigenvalues.

  State    Occupation    Eigenvalue [Ha]    Eigenvalue [eV]
      1       2.00000         -18.901101         -514.32513
      2       2.00000         -18.840485         -512.67569
      3       2.00000         -14.096982         -383.59840
      4       2.00000         -10.119973         -275.37849
      5       2.00000         -10.063419         -273.83957
      6       2.00000         -10.027486         -272.86177
      7       2.00000          -1.136273          -30.91956
      8       2.00000          -1.037207          -28.22383
      9       2.00000          -0.922203          -25.09441
     10       2.00000          -0.794649          -21.62350
     11       2.00000          -0.700138          -19.05172
     12       2.00000          -0.639825          -17.41052
     13       2.00000          -0.582262          -15.84415
     14       2.00000          -0.548186          -14.91690
     15       2.00000          -0.526907          -14.33786
     16       2.00000          -0.508369          -13.83343
     17       2.00000          -0.492975          -13.41454
     18       2.00000          -0.467079          -12.70987
     19       2.00000          -0.453452          -12.33906
     20       2.00000          -0.441172          -12.00491
     21       2.00000          -0.400303          -10.89281
     22       2.00000          -0.374094          -10.17962
     23       2.00000          -0.332276           -9.04170
     24       2.00000          -0.314564           -8.55973
     25       0.00000          -0.129103           -3.51307
     26       0.00000          -0.049722           -1.35300
     27       0.00000          -0.006107           -0.16619
     28       0.00000           0.015452            0.42048
     29       0.00000           0.032361            0.88057
     30       0.00000           0.052223            1.42106
     31       0.00000           0.061240            1.66642
     32       0.00000           0.075859            2.06424
     33       0.00000           0.089124            2.42519
     34       0.00000           0.105750            2.87760
     35       0.00000           0.123088            3.34940
     36       0.00000           0.159102            4.32940
     37       0.00000           0.178907            4.86830
     38       0.00000           0.225871            6.14626
     39       0.00000           0.254897            6.93611
     40       0.00000           0.259963            7.07395
     41       0.00000           0.292464            7.95834
     42       0.00000           0.309937            8.43381
     43       0.00000           0.319297            8.68851
     44       0.00000           0.353750            9.62603
     45       0.00000           0.369431           10.05272
     46       0.00000           0.388138           10.56178
     47       0.00000           0.411899           11.20833
     48       0.00000           0.446743           12.15651
     49       0.00000           0.455586           12.39714
     50       0.00000           0.525324           14.29480
     51       0.00000           0.550062           14.96794
     52       0.00000           0.558552           15.19897
     53       0.00000           0.598498           16.28595

  Highest occupied state (VBM) at     -8.55973293 eV
  | Occupation number:      2.00000000

  Lowest unoccupied state (CBM) at    -3.51306765 eV
  | Occupation number:      0.00000000

  Overall HOMO-LUMO gap:      5.04666527 eV.

  Total energy components:
  | Sum of eigenvalues            :        -185.44276470 Ha       -5046.15437290 eV
  | XC energy correction          :         -42.11938452 Ha       -1146.12676714 eV
  | XC potential correction       :          54.15029114 Ha        1473.50439298 eV
  | Free-atom electrostatic energy:        -146.85145330 Ha       -3996.03136008 eV
  | Hartree energy correction     :          -3.30506528 Ha         -89.93540206 eV
  | vdW energy correction         :           0.00000000 Ha           0.00000000 eV
  | Entropy correction            :           0.00000000 Ha           0.00000000 eV
  | ---------------------------
  | Total energy                  :        -323.56837666 Ha       -8804.74350921 eV
  | Total energy, T -> 0          :        -323.56837666 Ha       -8804.74350921 eV  <-- do not rely on this value for anything but (periodic) metals
  | Electronic free energy        :        -323.56837666 Ha       -8804.74350921 eV

  Derived energy quantities:
  | Kinetic energy                :         322.30254162 Ha        8770.29838546 eV
  | Electrostatic energy          :        -603.75153376 Ha      -16428.91512753 eV
  | Energy correction for multipole
  | error in Hartree potential    :           0.01211456 Ha           0.32965383 eV
  | Sum of eigenvalues per atom                           :        -388.16572099 eV
  | Total energy (T->0) per atom                          :        -677.28796225 eV  <-- do not rely on this value for anything but (periodic) metals
  | Electronic free energy per atom                       :        -677.28796225 eV

  Self-consistency convergence accuracy:
  | Change of charge density      :  0.5890E+00
  | Change of sum of eigenvalues  :  0.9232E+02 eV
  | Change of total energy        :  0.5081E+01 eV

  End self-consistency iteration #     1       :  max(cpu_time)    wall_clock(cpu1)
  | Time for this iteration                    :        1.187 s           1.188 s
  | Charge density update                      :        0.393 s           0.393 s
  | Density mixing                             :        0.005 s           0.006 s
  | Hartree multipole update                   :        0.009 s           0.009 s
  | Hartree multipole summation                :        0.284 s           0.284 s
  | Integration                                :        0.493 s           0.493 s
  | Solution of K.-S. eqns.                    :        0.002 s           0.002 s
  | Total energy evaluation                    :        0.000 s           0.000 s

  Partial memory accounting:
  | Current value for overall tracked memory usage on task 0  :           0.165 MB
  | Peak value for overall tracked memory usage on task 0     :           0.691 MB after allocating gradient_basis_wave
  | Largest tracked array allocation on task 0 so far         :           0.394 MB  when allocating gradient_basis_wave
  Note:  These values currently only include a subset of arrays which are explicitly tracked.
  The "true" memory usage will be greater.
------------------------------------------------------------

------------------------------------------------------------
          Begin self-consistency iteration #    2

  Date     :  20200902, Time     :  103859.246
------------------------------------------------------------
  Evaluating new KS density.
  Integration grid: deviation in total charge (<rho> - N_e) =   1.421085E-14
  Pulay mixing of updated and previous charge densities.

  Evaluating partitioned Hartree potential by multipole expansion.
  | Analytical far-field extrapolation by fixed multipoles:
  | Hartree multipole sum: apparent total charge =  -0.187317E-03
  Summing up the Hartree potential.
  Time summed over all CPUs for potential: real work        0.282 s, elapsed        0.282 s
  | RMS charge density error from multipole expansion :   0.139817E-01

  Integrating Hamiltonian matrix: batch-based integration.
  Time summed over all CPUs for integration: real work        0.492 s, elapsed        0.492 s

  Updating Kohn-Sham eigenvalues and eigenvectors using ELSI and the ELPA eigensolver.
  Finished Cholesky decomposition
  | Time :     0.000 s
  Finished transformation to standard eigenproblem
  | Time :     0.000 s
  Starting LAPACK eigensolver
  Finished solving standard eigenproblem
  | Time :     0.002 s
  Finished back-transformation of eigenvectors
  | Time :     0.000 s

  Obtaining occupation numbers and chemical potential using ELSI.
  | Chemical potential (Fermi level):    -3.38889719eV
  Highest occupied state (VBM) at     -6.56268065 eV
  | Occupation number:      2.00000000

  Lowest unoccupied state (CBM) at    -2.35511017 eV
  | Occupation number:      0.00000000

  Overall HOMO-LUMO gap:      4.20757048 eV.

  Checking to see if s.c.f. parameters should be adjusted.

  Total energy components:
  | Sum of eigenvalues            :        -181.92913735 Ha       -4950.54370829 eV
  | XC energy correction          :         -42.47379005 Ha       -1155.77063225 eV
  | XC potential correction       :          54.60965836 Ha        1486.00441103 eV
  | Free-atom electrostatic energy:        -146.85145330 Ha       -3996.03136008 eV
  | Hartree energy correction     :          -6.84409405 Ha        -186.23727474 eV
  | vdW energy correction         :           0.00000000 Ha           0.00000000 eV
  | Entropy correction            :           0.00000000 Ha           0.00000000 eV
  | ---------------------------
  | Total energy                  :        -323.48881639 Ha       -8802.57856432 eV
  | Total energy, T -> 0          :        -323.48881639 Ha       -8802.57856432 eV  <-- do not rely on this value for anything but (periodic) metals
  | Electronic free energy        :        -323.48881639 Ha       -8802.57856432 eV

  Derived energy quantities:
  | Kinetic energy                :         323.60115245 Ha        8805.63538389 eV
  | Electrostatic energy          :        -604.61617879 Ha      -16452.44331597 eV
  | Energy correction for multipole
  | error in Hartree potential    :           0.02644867 Ha           0.71970499 eV
  | Sum of eigenvalues per atom                           :        -380.81105448 eV
  | Total energy (T->0) per atom                          :        -677.12142802 eV  <-- do not rely on this value for anything but (periodic) metals
  | Electronic free energy per atom                       :        -677.12142802 eV

  Self-consistency convergence accuracy:
  | Change of charge density      :  0.3683E+00
  | Change of sum of eigenvalues  :  0.9561E+02 eV
  | Change of total energy        :  0.2165E+01 eV

  End self-consistency iteration #     2       :  max(cpu_time)    wall_clock(cpu1)
  | Time for this iteration                    :        1.177 s           1.177 s
  | Charge density update                      :        0.385 s           0.384 s
  | Density mixing                             :        0.007 s           0.007 s
  | Hartree multipole update                   :        0.009 s           0.009 s
  | Hartree multipole summation                :        0.283 s           0.283 s
  | Integration                                :        0.492 s           0.492 s
  | Solution of K.-S. eqns.                    :        0.002 s           0.002 s
  | Total energy evaluation                    :        0.000 s           0.000 s

  Partial memory accounting:
  | Current value for overall tracked memory usage on task 0  :           0.166 MB
  | Peak value for overall tracked memory usage on task 0     :           0.691 MB after allocating gradient_basis_wave
  | Largest tracked array allocation on task 0 so far         :           0.394 MB  when allocating gradient_basis_wave
  Note:  These values currently only include a subset of arrays which are explicitly tracked.
  The "true" memory usage will be greater.
------------------------------------------------------------

------------------------------------------------------------
          Begin self-consistency iteration #    3

  Date     :  20200902, Time     :  103900.427
------------------------------------------------------------
  Evaluating new KS density.
  Integration grid: deviation in total charge (<rho> - N_e) =   0.000000E+00
  Pulay mixing of updated and previous charge densities.

  Evaluating partitioned Hartree potential by multipole expansion.
  | Analytical far-field extrapolation by fixed multipoles:
  | Hartree multipole sum: apparent total charge =  -0.281819E-03
  Summing up the Hartree potential.
  Time summed over all CPUs for potential: real work        0.283 s, elapsed        0.283 s
  | RMS charge density error from multipole expansion :   0.219832E-01

  Integrating Hamiltonian matrix: batch-based integration.
  Time summed over all CPUs for integration: real work        0.493 s, elapsed        0.493 s

  Updating Kohn-Sham eigenvalues and eigenvectors using ELSI and the ELPA eigensolver.
  Finished Cholesky decomposition
  | Time :     0.000 s
  Finished transformation to standard eigenproblem
  | Time :     0.000 s
  Starting LAPACK eigensolver
  Finished solving standard eigenproblem
  | Time :     0.002 s
  Finished back-transformation of eigenvectors
  | Time :     0.000 s

  Obtaining occupation numbers and chemical potential using ELSI.
  | Chemical potential (Fermi level):    -2.85353165eV
  Highest occupied state (VBM) at     -5.88261860 eV
  | Occupation number:      2.00000000

  Lowest unoccupied state (CBM) at    -1.69984465 eV
  | Occupation number:      0.00000000

  Overall HOMO-LUMO gap:      4.18277395 eV.

  Total energy components:
  | Sum of eigenvalues            :        -180.60989858 Ha       -4914.64539469 eV
  | XC energy correction          :         -42.62799241 Ha       -1159.96669198 eV
  | XC potential correction       :          54.80639009 Ha        1491.35775369 eV
  | Free-atom electrostatic energy:        -146.85145330 Ha       -3996.03136008 eV
  | Hartree energy correction     :          -8.19223465 Ha        -222.92204705 eV
  | vdW energy correction         :           0.00000000 Ha           0.00000000 eV
  | Entropy correction            :           0.00000000 Ha           0.00000000 eV
  | ---------------------------
  | Total energy                  :        -323.47518885 Ha       -8802.20774012 eV
  | Total energy, T -> 0          :        -323.47518885 Ha       -8802.20774012 eV  <-- do not rely on this value for anything but (periodic) metals
  | Electronic free energy        :        -323.47518885 Ha       -8802.20774012 eV

  Derived energy quantities:
  | Kinetic energy                :         323.22533971 Ha        8795.40899902 eV
  | Electrostatic energy          :        -604.07253615 Ha      -16437.65004716 eV
  | Energy correction for multipole
  | error in Hartree potential    :           0.03740419 Ha           1.01781982 eV
  | Sum of eigenvalues per atom                           :        -378.04964575 eV
  | Total energy (T->0) per atom                          :        -677.09290309 eV  <-- do not rely on this value for anything but (periodic) metals
  | Electronic free energy per atom                       :        -677.09290309 eV

  Self-consistency convergence accuracy:
  | Change of charge density      :  0.2082E+00
  | Change of sum of eigenvalues  :  0.3590E+02 eV
  | Change of total energy        :  0.3708E+00 eV

  End self-consistency iteration #     3       :  max(cpu_time)    wall_clock(cpu1)
  | Time for this iteration                    :        1.180 s           1.181 s
  | Charge density update                      :        0.385 s           0.385 s
  | Density mixing                             :        0.008 s           0.008 s
  | Hartree multipole update                   :        0.009 s           0.009 s
  | Hartree multipole summation                :        0.283 s           0.283 s
  | Integration                                :        0.493 s           0.493 s
  | Solution of K.-S. eqns.                    :        0.002 s           0.002 s
  | Total energy evaluation                    :        0.000 s           0.000 s

  Partial memory accounting:
  | Current value for overall tracked memory usage on task 0  :           0.166 MB
  | Peak value for overall tracked memory usage on task 0     :           0.692 MB after allocating gradient_basis_wave
  | Largest tracked array allocation on task 0 so far         :           0.394 MB  when allocating gradient_basis_wave
  Note:  These values currently only include a subset of arrays which are explicitly tracked.
  The "true" memory usage will be greater.
------------------------------------------------------------

------------------------------------------------------------
          Begin self-consistency iteration #    4

  Date     :  20200902, Time     :  103901.611
------------------------------------------------------------
  Evaluating new KS density.
  Integration grid: deviation in total charge (<rho> - N_e) =   1.421085E-14
  Pulay mixing of updated and previous charge densities.

  Evaluating partitioned Hartree potential by multipole expansion.
  | Analytical far-field extrapolation by fixed multipoles:
  | Hartree multipole sum: apparent total charge =  -0.313907E-03
  Summing up the Hartree potential.
  Time summed over all CPUs for potential: real work        0.282 s, elapsed        0.282 s
  | RMS charge density error from multipole expansion :   0.254726E-01

  Integrating Hamiltonian matrix: batch-based integration.
  Time summed over all CPUs for integration: real work        0.493 s, elapsed        0.493 s

  Updating Kohn-Sham eigenvalues and eigenvectors using ELSI and the ELPA eigensolver.
  Finished Cholesky decomposition
  | Time :     0.000 s
  Finished transformation to standard eigenproblem
  | Time :     0.000 s
  Starting LAPACK eigensolver
  Finished solving standard eigenproblem
  | Time :     0.002 s
  Finished back-transformation of eigenvectors
  | Time :     0.000 s

  Obtaining occupation numbers and chemical potential using ELSI.
  | Chemical potential (Fermi level):    -2.75057622eV
  Highest occupied state (VBM) at     -5.72024570 eV
  | Occupation number:      2.00000000

  Lowest unoccupied state (CBM) at    -1.59862365 eV
  | Occupation number:      0.00000000

  Overall HOMO-LUMO gap:      4.12162205 eV.

  Total energy components:
  | Sum of eigenvalues            :        -180.45474614 Ha       -4910.42348205 eV
  | XC energy correction          :         -42.66726792 Ha       -1161.03543296 eV
  | XC potential correction       :          54.85583077 Ha        1492.70310314 eV
  | Free-atom electrostatic energy:        -146.85145330 Ha       -3996.03136008 eV
  | Hartree energy correction     :          -8.35653177 Ha        -227.39279906 eV
  | vdW energy correction         :           0.00000000 Ha           0.00000000 eV
  | Entropy correction            :           0.00000000 Ha           0.00000000 eV
  | ---------------------------
  | Total energy                  :        -323.47416836 Ha       -8802.17997102 eV
  | Total energy, T -> 0          :        -323.47416836 Ha       -8802.17997102 eV  <-- do not rely on this value for anything but (periodic) metals
  | Electronic free energy        :        -323.47416836 Ha       -8802.17997102 eV

  Derived energy quantities:
  | Kinetic energy                :         322.84172713 Ha        8784.97036966 eV
  | Electrostatic energy          :        -603.64862757 Ha      -16426.11490771 eV
  | Energy correction for multipole
  | error in Hartree potential    :           0.04167731 Ha           1.13409736 eV
  | Sum of eigenvalues per atom                           :        -377.72488323 eV
  | Total energy (T->0) per atom                          :        -677.09076700 eV  <-- do not rely on this value for anything but (periodic) metals
  | Electronic free energy per atom                       :        -677.09076700 eV

  Self-consistency convergence accuracy:
  | Change of charge density      :  0.6813E-01
  | Change of sum of eigenvalues  :  0.4222E+01 eV
  | Change of total energy        :  0.2777E-01 eV

  End self-consistency iteration #     4       :  max(cpu_time)    wall_clock(cpu1)
  | Time for this iteration                    :        1.182 s           1.182 s
  | Charge density update                      :        0.385 s           0.385 s
  | Density mixing                             :        0.010 s           0.010 s
  | Hartree multipole update                   :        0.009 s           0.009 s
  | Hartree multipole summation                :        0.283 s           0.282 s
  | Integration                                :        0.493 s           0.494 s
  | Solution of K.-S. eqns.                    :        0.002 s           0.002 s
  | Total energy evaluation                    :        0.000 s           0.000 s

  Partial memory accounting:
  | Current value for overall tracked memory usage on task 0  :           0.166 MB
  | Peak value for overall tracked memory usage on task 0     :           0.692 MB after allocating gradient_basis_wave
  | Largest tracked array allocation on task 0 so far         :           0.394 MB  when allocating gradient_basis_wave
  Note:  These values currently only include a subset of arrays which are explicitly tracked.
  The "true" memory usage will be greater.
------------------------------------------------------------

------------------------------------------------------------
          Begin self-consistency iteration #    5

  Date     :  20200902, Time     :  103902.796
------------------------------------------------------------
  Evaluating new KS density.
  Integration grid: deviation in total charge (<rho> - N_e) =  -7.105427E-15
  Pulay mixing of updated and previous charge densities.

  Evaluating partitioned Hartree potential by multipole expansion.
  | Analytical far-field extrapolation by fixed multipoles:
  | Hartree multipole sum: apparent total charge =  -0.307949E-03
  Summing up the Hartree potential.
  Time summed over all CPUs for potential: real work        0.283 s, elapsed        0.283 s
  | RMS charge density error from multipole expansion :   0.252786E-01

  Integrating Hamiltonian matrix: batch-based integration.
  Time summed over all CPUs for integration: real work        0.500 s, elapsed        0.500 s

  Updating Kohn-Sham eigenvalues and eigenvectors using ELSI and the ELPA eigensolver.
  Finished Cholesky decomposition
  | Time :     0.000 s
  Finished transformation to standard eigenproblem
  | Time :     0.000 s
  Starting LAPACK eigensolver
  Finished solving standard eigenproblem
  | Time :     0.001 s
  Finished back-transformation of eigenvectors
  | Time :     0.000 s

  Obtaining occupation numbers and chemical potential using ELSI.
  | Chemical potential (Fermi level):    -2.80095816eV
  Highest occupied state (VBM) at     -5.80509465 eV
  | Occupation number:      2.00000000

  Lowest unoccupied state (CBM) at    -1.69545083 eV
  | Occupation number:      0.00000000

  Overall HOMO-LUMO gap:      4.10964382 eV.

  Total energy components:
  | Sum of eigenvalues            :        -180.67109607 Ha       -4916.31066318 eV
  | XC energy correction          :         -42.64096261 Ha       -1160.31962914 eV
  | XC potential correction       :          54.82168269 Ha        1491.77388651 eV
  | Free-atom electrostatic energy:        -146.85145330 Ha       -3996.03136008 eV
  | Hartree energy correction     :          -8.13204708 Ha        -221.28425996 eV
  | vdW energy correction         :           0.00000000 Ha           0.00000000 eV
  | Entropy correction            :           0.00000000 Ha           0.00000000 eV
  | ---------------------------
  | Total energy                  :        -323.47387638 Ha       -8802.17202585 eV
  | Total energy, T -> 0          :        -323.47387638 Ha       -8802.17202585 eV  <-- do not rely on this value for anything but (periodic) metals
  | Electronic free energy        :        -323.47387638 Ha       -8802.17202585 eV

  Derived energy quantities:
  | Kinetic energy                :         322.70540277 Ha        8781.26079506 eV
  | Electrostatic energy          :        -603.53831654 Ha      -16423.11319178 eV
  | Energy correction for multipole
  | error in Hartree potential    :           0.04105070 Ha           1.11704650 eV
  | Sum of eigenvalues per atom                           :        -378.17774332 eV
  | Total energy (T->0) per atom                          :        -677.09015583 eV  <-- do not rely on this value for anything but (periodic) metals
  | Electronic free energy per atom                       :        -677.09015583 eV

  Self-consistency convergence accuracy:
  | Change of charge density      :  0.2083E-01
  | Change of sum of eigenvalues  : -0.5887E+01 eV
  | Change of total energy        :  0.7945E-02 eV

  End self-consistency iteration #     5       :  max(cpu_time)    wall_clock(cpu1)
  | Time for this iteration                    :        1.184 s           1.191 s
  | Charge density update                      :        0.385 s           0.386 s
  | Density mixing                             :        0.011 s           0.011 s
  | Hartree multipole update                   :        0.009 s           0.008 s
  | Hartree multipole summation                :        0.283 s           0.284 s
  | Integration                                :        0.493 s           0.500 s
  | Solution of K.-S. eqns.                    :        0.002 s           0.002 s
  | Total energy evaluation                    :        0.000 s           0.000 s

  Partial memory accounting:
  | Current value for overall tracked memory usage on task 0  :           0.166 MB
  | Peak value for overall tracked memory usage on task 0     :           0.692 MB after allocating gradient_basis_wave
  | Largest tracked array allocation on task 0 so far         :           0.394 MB  when allocating gradient_basis_wave
  Note:  These values currently only include a subset of arrays which are explicitly tracked.
  The "true" memory usage will be greater.
------------------------------------------------------------

------------------------------------------------------------
          Begin self-consistency iteration #    6

  Date     :  20200902, Time     :  103903.990
------------------------------------------------------------
  Evaluating new KS density.
  Integration grid: deviation in total charge (<rho> - N_e) =   2.131628E-14
  Pulay mixing of updated and previous charge densities.

  Evaluating partitioned Hartree potential by multipole expansion.
  | Analytical far-field extrapolation by fixed multipoles:
  | Hartree multipole sum: apparent total charge =  -0.312512E-03
  Summing up the Hartree potential.
  Time summed over all CPUs for potential: real work        0.282 s, elapsed        0.282 s
  | RMS charge density error from multipole expansion :   0.257727E-01

  Integrating Hamiltonian matrix: batch-based integration.
  Time summed over all CPUs for integration: real work        0.493 s, elapsed        0.493 s

  Updating Kohn-Sham eigenvalues and eigenvectors using ELSI and the ELPA eigensolver.
  Finished Cholesky decomposition
  | Time :     0.000 s
  Finished transformation to standard eigenproblem
  | Time :     0.000 s
  Starting LAPACK eigensolver
  Finished solving standard eigenproblem
  | Time :     0.002 s
  Finished back-transformation of eigenvectors
  | Time :     0.000 s

  Obtaining occupation numbers and chemical potential using ELSI.
  | Chemical potential (Fermi level):    -2.78508800eV
  Highest occupied state (VBM) at     -5.75835074 eV
  | Occupation number:      2.00000000

  Lowest unoccupied state (CBM) at    -1.69777151 eV
  | Occupation number:      0.00000000

  Overall HOMO-LUMO gap:      4.06057924 eV.

  Total energy components:
  | Sum of eigenvalues            :        -180.64392132 Ha       -4915.57120066 eV
  | XC energy correction          :         -42.64348028 Ha       -1160.38813821 eV
  | XC potential correction       :          54.82491995 Ha        1491.86197691 eV
  | Free-atom electrostatic energy:        -146.85145330 Ha       -3996.03136008 eV
  | Hartree energy correction     :          -8.15989830 Ha        -222.04212999 eV
  | vdW energy correction         :           0.00000000 Ha           0.00000000 eV
  | Entropy correction            :           0.00000000 Ha           0.00000000 eV
  | ---------------------------
  | Total energy                  :        -323.47383324 Ha       -8802.17085203 eV
  | Total energy, T -> 0          :        -323.47383324 Ha       -8802.17085203 eV  <-- do not rely on this value for anything but (periodic) metals
  | Electronic free energy        :        -323.47383324 Ha       -8802.17085203 eV

  Derived energy quantities:
  | Kinetic energy                :         322.63730839 Ha        8779.40785262 eV
  | Electrostatic energy          :        -603.46766135 Ha      -16421.19056644 eV
  | Energy correction for multipole
  | error in Hartree potential    :           0.04153597 Ha           1.13025119 eV
  | Sum of eigenvalues per atom                           :        -378.12086159 eV
  | Total energy (T->0) per atom                          :        -677.09006554 eV  <-- do not rely on this value for anything but (periodic) metals
  | Electronic free energy per atom                       :        -677.09006554 eV

  Self-consistency convergence accuracy:
  | Change of charge density      :  0.1092E-01
  | Change of sum of eigenvalues  :  0.7395E+00 eV
  | Change of total energy        :  0.1174E-02 eV

  End self-consistency iteration #     6       :  max(cpu_time)    wall_clock(cpu1)
  | Time for this iteration                    :        1.183 s           1.183 s
  | Charge density update                      :        0.384 s           0.384 s
  | Density mixing                             :        0.012 s           0.012 s
  | Hartree multipole update                   :        0.009 s           0.009 s
  | Hartree multipole summation                :        0.283 s           0.283 s
  | Integration                                :        0.493 s           0.493 s
  | Solution of K.-S. eqns.                    :        0.002 s           0.002 s
  | Total energy evaluation                    :        0.000 s           0.000 s

  Partial memory accounting:
  | Current value for overall tracked memory usage on task 0  :           0.166 MB
  | Peak value for overall tracked memory usage on task 0     :           0.692 MB after allocating gradient_basis_wave
  | Largest tracked array allocation on task 0 so far         :           0.394 MB  when allocating gradient_basis_wave
  Note:  These values currently only include a subset of arrays which are explicitly tracked.
  The "true" memory usage will be greater.
------------------------------------------------------------

------------------------------------------------------------
          Begin self-consistency iteration #    7

  Date     :  20200902, Time     :  103905.177
------------------------------------------------------------
  Evaluating new KS density.
  Integration grid: deviation in total charge (<rho> - N_e) =  -3.552714E-14
  Pulay mixing of updated and previous charge densities.

  Evaluating partitioned Hartree potential by multipole expansion.
  | Analytical far-field extrapolation by fixed multipoles:
  | Hartree multipole sum: apparent total charge =  -0.313038E-03
  Summing up the Hartree potential.
  Time summed over all CPUs for potential: real work        0.283 s, elapsed        0.283 s
  | RMS charge density error from multipole expansion :   0.258620E-01

  Integrating Hamiltonian matrix: batch-based integration.
  Time summed over all CPUs for integration: real work        0.493 s, elapsed        0.493 s

  Updating Kohn-Sham eigenvalues and eigenvectors using ELSI and the ELPA eigensolver.
  Finished Cholesky decomposition
  | Time :     0.000 s
  Finished transformation to standard eigenproblem
  | Time :     0.000 s
  Starting LAPACK eigensolver
  Finished solving standard eigenproblem
  | Time :     0.002 s
  Finished back-transformation of eigenvectors
  | Time :     0.000 s

[...]
  |   Hirshfeld dipole moment :      0.05537444
  |   Hirshfeld second moments:      0.01764528      -0.03246400      -0.01859908
  |                                 -0.03246400      -0.01896294       0.00830788
  |                                 -0.01859908       0.00830788      -0.01357958
  ----------------------------------------------------------------------
  | Atom    12: O
  |   Hirshfeld charge        :     -0.15361133
  |   Free atom volume        :     23.61338643
  |   Hirshfeld volume        :     20.77399786
  |   Hirshfeld dipole vector :      0.03166976       0.02835193      -0.00448340
  |   Hirshfeld dipole moment :      0.04274233
  |   Hirshfeld second moments:      0.05801695      -0.02692531      -0.01558829
  |                                 -0.02692531       0.06914542       0.03596068
  |                                 -0.01558829       0.03596068       0.05735753
  ----------------------------------------------------------------------
  | Atom    13: H
  |   Hirshfeld charge        :      0.18638569
  |   Free atom volume        :      9.95071624
  |   Hirshfeld volume        :      6.00004335
  |   Hirshfeld dipole vector :      0.08719757      -0.06539897      -0.06603666
  |   Hirshfeld dipole moment :      0.12744129
  |   Hirshfeld second moments:      0.12192846      -0.00364790       0.00467576
  |                                 -0.00364790       0.12122651       0.00843274
  |                                  0.00467576       0.00843274       0.11475789
  ----------------------------------------------------------------------


  Total energy components:
  | Sum of eigenvalues            :        -180.64528840 Ha       -4915.60840081 eV
  | XC energy correction          :         -42.64006715 Ha       -1160.29526219 eV
  | XC potential correction       :          54.82058701 Ha        1491.74407153 eV
  | Free-atom electrostatic energy:        -146.85145330 Ha       -3996.03136008 eV
  | Hartree energy correction     :          -8.15758836 Ha        -221.97927352 eV
  | vdW energy correction         :          -0.00318678 Ha          -0.08671666 eV
  | Entropy correction            :           0.00000000 Ha           0.00000000 eV
  | ---------------------------
  | Total energy                  :        -323.47699698 Ha       -8802.25694173 eV
  | Total energy, T -> 0          :        -323.47699698 Ha       -8802.25694173 eV  <-- do not rely on this value for anything but (periodic) metals
  | Electronic free energy        :        -323.47699698 Ha       -8802.25694173 eV

  Derived energy quantities:
  | Kinetic energy                :         322.60147660 Ha        8778.43281998 eV
  | Electrostatic energy          :        -603.43521965 Ha      -16420.30778286 eV
  | Energy correction for multipole
  | error in Hartree potential    :           0.04155952 Ha           1.13089209 eV
  | Sum of eigenvalues per atom                           :        -378.12372314 eV
  | Total energy (T->0) per atom                          :        -677.09668783 eV  <-- do not rely on this value for anything but (periodic) metals
  | Electronic free energy per atom                       :        -677.09668783 eV

  atomic forces [eV/Ang]:
  -----------------------
  atom #    1
   Hellmann-Feynman              :  0.648799E+00  0.252447E+00  0.107972E+01
   Ionic forces                  :  0.000000E+00  0.000000E+00  0.000000E+00
   Multipole                     :  0.237082E+00  0.138335E+00 -0.305968E+00
   Pulay + GGA                   : -0.119416E+01 -0.143880E+00 -0.122756E+01
   Van der Waals                 :  0.231074E-02  0.587855E-02 -0.525223E-03
   ----------------------------------------------------------------
   Total forces(   1)            : -0.305969E+00  0.252780E+00 -0.454332E+00
  atom #    2
   Hellmann-Feynman              :  0.389685E+00  0.838879E-02  0.252913E+00
   Ionic forces                  :  0.000000E+00  0.000000E+00  0.000000E+00
   Multipole                     :  0.155770E+00  0.126982E-01 -0.134497E-01
   Pulay + GGA                   : -0.119621E+00  0.183091E-01  0.327253E-01
   Van der Waals                 :  0.729834E-02 -0.520498E-02 -0.356224E-02
   ----------------------------------------------------------------
   Total forces(   2)            :  0.433132E+00  0.341911E-01  0.268626E+00
  atom #    3
   Hellmann-Feynman              : -0.955182E+01  0.690386E+01  0.226586E+00
   Ionic forces                  :  0.000000E+00  0.000000E+00  0.000000E+00
   Multipole                     : -0.902557E-01  0.139702E+00 -0.109735E+01
   Pulay + GGA                   :  0.975151E+01 -0.687487E+01  0.142081E+01
   Van der Waals                 :  0.322202E-02  0.112928E-02 -0.107120E-01
   ----------------------------------------------------------------
   Total forces(   3)            :  0.112663E+00  0.169822E+00  0.539342E+00
  atom #    4
   Hellmann-Feynman              :  0.654593E-01 -0.135767E+00 -0.140819E+00
   Ionic forces                  :  0.000000E+00  0.000000E+00  0.000000E+00
   Multipole                     :  0.288418E-01 -0.101416E-02 -0.103379E+00
   Pulay + GGA                   : -0.199356E+00  0.415853E-02  0.117645E+00
   Van der Waals                 : -0.314842E-02 -0.356361E-02  0.430191E-02
   ----------------------------------------------------------------
   Total forces(   4)            : -0.108203E+00 -0.136186E+00 -0.122251E+00
  atom #    5
   Hellmann-Feynman              :  0.771537E-01 -0.114334E+00 -0.285593E+00
   Ionic forces                  :  0.000000E+00  0.000000E+00  0.000000E+00
   Multipole                     : -0.212128E-01 -0.728614E-01 -0.877894E-01
   Pulay + GGA                   : -0.990693E-01  0.242879E+00  0.580221E-01
   Van der Waals                 : -0.299937E-02  0.411089E-02  0.644967E-03
   ----------------------------------------------------------------
   Total forces(   5)            : -0.461278E-01  0.597943E-01 -0.314716E+00
  atom #    6
   Hellmann-Feynman              : -0.155267E+00 -0.443916E+00  0.594656E+00
   Ionic forces                  :  0.000000E+00  0.000000E+00  0.000000E+00
   Multipole                     : -0.982690E-01  0.624373E+00  0.239448E+00
   Pulay + GGA                   :  0.380269E+00 -0.512248E+00 -0.646426E+00
   Van der Waals                 : -0.403088E-02  0.484812E-02 -0.239155E-02
   ----------------------------------------------------------------
   Total forces(   6)            :  0.122702E+00 -0.326943E+00  0.185286E+00
  atom #    7
   Hellmann-Feynman              : -0.189375E+00 -0.593866E-01 -0.729128E-01
   Ionic forces                  :  0.000000E+00  0.000000E+00  0.000000E+00
   Multipole                     : -0.122055E+00  0.500274E-01  0.268532E-01
   Pulay + GGA                   :  0.123338E+00 -0.118975E-02 -0.304757E-01
   Van der Waals                 : -0.105156E-02  0.141159E-02  0.286607E-02
   ----------------------------------------------------------------
   Total forces(   7)            : -0.189144E+00 -0.913740E-02 -0.736693E-01
  atom #    8
   Hellmann-Feynman              :  0.112399E+00 -0.270238E-01  0.154691E+00
   Ionic forces                  :  0.000000E+00  0.000000E+00  0.000000E+00
   Multipole                     :  0.133703E-01  0.601738E-01  0.124137E+00
   Pulay + GGA                   : -0.418251E-01 -0.352168E-01 -0.835467E-01
   Van der Waals                 : -0.247789E-02  0.115241E-01  0.154781E-02
   ----------------------------------------------------------------
   Total forces(   8)            :  0.814664E-01  0.945730E-02  0.196829E+00
  atom #    9
   Hellmann-Feynman              :  0.101091E+00  0.367652E-01 -0.185057E+00
   Ionic forces                  :  0.000000E+00  0.000000E+00  0.000000E+00
   Multipole                     :  0.146791E-01  0.125330E+00 -0.127132E-01
   Pulay + GGA                   : -0.598848E-01 -0.808562E-01  0.463816E-01
   Van der Waals                 : -0.168189E-02  0.240591E-02  0.266759E-02
   ----------------------------------------------------------------
   Total forces(   9)            :  0.542037E-01  0.836452E-01 -0.148721E+00
  atom #   10
   Hellmann-Feynman              :  0.365420E+01  0.532129E+01  0.209161E+01
   Ionic forces                  :  0.000000E+00  0.000000E+00  0.000000E+00
   Multipole                     :  0.967595E-01 -0.318193E-01  0.288229E+00
   Pulay + GGA                   : -0.237660E+01 -0.261887E+01  0.144557E-01
   Van der Waals                 :  0.359697E-02 -0.110084E-01 -0.173610E-02
   ----------------------------------------------------------------
   Total forces(  10)            :  0.137795E+01  0.265959E+01  0.239256E+01
  atom #   11
   Hellmann-Feynman              :  0.410885E+01 -0.242143E+01  0.136622E+02
   Ionic forces                  :  0.000000E+00  0.000000E+00  0.000000E+00
   Multipole                     :  0.549282E-01 -0.604766E+00  0.739627E+00
   Pulay + GGA                   : -0.356809E+01  0.382461E+01 -0.134668E+02
   Van der Waals                 : -0.317207E-02 -0.105583E-01  0.449675E-02
   ----------------------------------------------------------------
   Total forces(  11)            :  0.592519E+00  0.787849E+00  0.939517E+00
  atom #   12
   Hellmann-Feynman              : -0.148128E+02 -0.441455E+01 -0.249820E+01
   Ionic forces                  :  0.000000E+00  0.000000E+00  0.000000E+00
   Multipole                     : -0.103688E+01 -0.128806E+01 -0.189407E+00
   Pulay + GGA                   :  0.141564E+02  0.306305E+01  0.196523E-01
   Van der Waals                 :  0.121909E-02  0.689923E-02  0.359602E-02
   ----------------------------------------------------------------
   Total forces(  12)            : -0.169200E+01 -0.263266E+01 -0.266436E+01
  atom #   13
   Hellmann-Feynman              : -0.156524E+00 -0.102537E+01 -0.978103E+00
   Ionic forces                  :  0.000000E+00  0.000000E+00  0.000000E+00
   Multipole                     :  0.569125E-01 -0.414570E-01 -0.156041E-01
   Pulay + GGA                   : -0.333013E+00  0.118782E+00  0.244574E+00
   Van der Waals                 :  0.914926E-03 -0.787232E-02 -0.119397E-02
   ----------------------------------------------------------------
   Total forces(  13)            : -0.431710E+00 -0.955921E+00 -0.750326E+00

  Timings for VdW correction (Tkatchenko-Scheffler 2009 or later):
  | CPU time:        0.090 s, Wall clock time:        0.090 s.
  Removing unitary transformations (pure translations, rotations) from forces on atoms.
  Atomic forces before filtering:
  | Net force on center of mass :   0.148717E-02 -0.372146E-02 -0.621160E-02 eV/A
  | Net torque on center of mass:   0.168386E-02  0.487938E-02  0.424407E-02 eV
  Atomic forces after filtering:
  | Net force on center of mass :   0.000000E+00  0.356812E-15  0.624421E-15 eV/A
  | Net torque on center of mass:  -0.944085E-16  0.413037E-15 -0.151054E-14 eV

  Energy and forces in a compact form:
  | Total energy uncorrected      :         -0.880225694172769E+04 eV
  | Total energy corrected        :         -0.880225694172769E+04 eV  <-- do not rely on this value for anything but (periodic) metals
  | Electronic free energy        :         -0.880225694172769E+04 eV
  Total atomic forces (unitary forces cleaned) [eV/Ang]:
  |   1         -0.306044150448978E+00          0.253013437432291E+00         -0.453784401366020E+00
  |   2          0.433056275451020E+00          0.342504264365353E-01          0.269435347688739E+00
  |   3          0.112924650791181E+00          0.170071288926368E+00          0.539774980167035E+00
  |   4         -0.107746050229181E+00         -0.136082728100112E+00         -0.121650783099824E+00
  |   5         -0.459558907145288E-01          0.600763697553214E-01         -0.314307910505222E+00
  |   6          0.122652450256893E+00         -0.326600250986206E+00          0.185662093920225E+00
  |   7         -0.189192234056558E+00         -0.862069131246993E-02         -0.735557679724306E-01
  |   8          0.811727338580806E-01          0.978604551128785E-02          0.197290494344478E+00
  |   9          0.544180418248384E-01          0.839089485881706E-01         -0.148297344510792E+00
  |  10          0.137749609706478E+01          0.265991430786614E+01          0.239306765832371E+01
  |  11          0.591744478345256E+00          0.788177985153919E+00          0.940106864805302E+00
  |  12         -0.169242927369095E+01         -0.263224965175982E+01         -0.266398102971808E+01
  |  13         -0.432097128451851E+00         -0.955645487511417E+00         -0.749760202077122E+00

  ------------------------------------ 
  Start decomposition of the XC Energy 
  ------------------------------------ 
  X and C from original XC functional choice 
  Hartree-Fock Energy :          0.000000000 Ha              0.000000000 eV
  X Energy            :        -41.039228186 Ha          -1116.734217750 eV
  C Energy            :         -1.600838959 Ha            -43.561044440 eV
  Total XC Energy     :        -42.640067145 Ha          -1160.295262190 eV
  ------------------------------------ 
  LDA X and C from self-consistent density 
  X Energy LDA        :        -37.258147380 Ha          -1013.845774115 eV
  C Energy LDA        :         -3.138708187 Ha            -85.408595311 eV
  ------------------------------------ 
  End decomposition of the XC Energy 
  ------------------------------------ 

------------------------------------------------------------

------------------------------------------------------------------------------
  Final output of selected total energy values:

  The following output summarizes some interesting total energy values
  at the end of a run (AFTER all relaxation, molecular dynamics, etc.).

  | Total energy of the DFT / Hartree-Fock s.c.f. calculation      :          -8802.256941728 eV
  | Final zero-broadening corrected energy (caution - metals only) :          -8802.256941728 eV
  | For reference only, the value of 1 Hartree used in FHI-aims is :             27.211384500 eV

  Before relying on these values, please be sure to understand exactly which
  total energy value is referred to by a given number. Different objects may
  all carry the same name 'total energy'. Definitions:

  Total energy of the DFT / Hartree-Fock s.c.f. calculation:
  | Note that this energy does not include ANY quantities calculated after the
  | s.c.f. cycle, in particular not ANY RPA, MP2, etc. many-body perturbation terms.

  Final zero-broadening corrected energy:
  | For metallic systems only, a broadening of the occupation numbers at the Fermi
  | level can be extrapolated back to zero broadening by an electron-gas inspired
  | formula. For all systems that are not real metals, this value can be
  | meaningless and should be avoided.

------------------------------------------------------------------------------
  Methods described in the following list of references were used in this FHI-aims run.
  If you publish the results, please make sure to cite these reference if they apply.
  FHI-aims is an academic code, and for our developers (often, Ph.D. students
  and postdocs), scientific credit in the community is essential.
  Thank you for helping us!

  For any use of FHI-aims, please cite:

    Volker Blum, Ralf Gehrke, Felix Hanke, Paula Havu, Ville Havu,
    Xinguo Ren, Karsten Reuter, and Matthias Scheffler
    'Ab initio molecular simulations with numeric atom-centered orbitals'
    Computer Physics Communications 180, 2175-2196 (2009)
    http://dx.doi.org/10.1016/j.cpc.2009.06.022


  The scalable eigensolver library ELPA was used in your run.
  ELPA is essential especially for large systems on hundreds or thousands of CPUs.
  For ELPA, please cite:

    Andreas Marek, Volker Blum, Rainer Johanni, Ville Havu, Bruno Lang,
    Thomas Auckenthaler, Alexander Heinecke, Hans-Joachim Bungartz, and Hermann Lederer,
    'The ELPA Library - Scalable Parallel Eigenvalue Solutions
    for Electronic Structure Theory and Computational Science'
    The Journal of Physics: Condensed Matter 26, 213201 (2014).
    http://dx.doi.org/10.1088/0953-8984/26/21/213201


  The ELSI infrastructure was used in your run to solve the Kohn-Sham electronic structure.
  Please check out http://elsi-interchange.org to learn more.
  If scalability is important for your project, please acknowledge ELSI by citing:

    V. W-z. Yu, F. Corsetti, A. Garcia, W. P. Huhn, M. Jacquelin, W. Jia,
    B. Lange, L. Lin, J. Lu, W. Mi, A. Seifitokaldani, A. Vazquez-Mayagoitia,
    C. Yang, H. Yang, and V. Blum
    'ELSI: A unified software interface for Kohn-Sham electronic structure solvers'
    Computer Physics Communications 222, 267-285 (2018).
    http://dx.doi.org/10.1016/j.cpc.2017.09.007


  For the real-space grid partitioning and parallelization used in this calculation, please cite:

    Ville Havu, Volker Blum, Paula Havu, and Matthias Scheffler,
    'Efficient O(N) integration for all-electron electronic structure calculation'
    'using numerically tabulated basis functions'
    Journal of Computational Physics 228, 8367-8379 (2009).
    http://dx.doi.org/10.1016/j.jcp.2009.08.008

  Of course, there are many other important community references, e.g., those cited in the
  above references. Our list is limited to references that describe implementations in the
  FHI-aims code. The reason is purely practical (length of this list) - please credit others as well.

------------------------------------------------------------
          Leaving FHI-aims.
          Date     :  20200902, Time     :  103919.448

          Computational steps:
          | Number of self-consistency cycles          :           16
          | Number of SCF (re)initializations          :            1

          Detailed time accounting                     :  max(cpu_time)    wall_clock(cpu1)
          | Total time                                 :       22.632 s          22.711 s
          | Preparation time                           :        0.147 s           0.148 s
          | Boundary condition initalization           :        0.000 s           0.000 s
          | Grid partitioning                          :        0.112 s           0.113 s
          | Preloading free-atom quantities on grid    :        0.002 s           0.003 s
          | Free-atom superposition energy             :        0.085 s           0.085 s
          | Total time for integrations                :        8.597 s           8.608 s
          | Total time for solution of K.-S. equations :        0.036 s           0.036 s
          | Total time for density & force components  :        7.119 s           7.125 s
          | Total time for mixing                      :        0.217 s           0.223 s
          | Total time for Hartree multipole update    :        0.141 s           0.141 s
          | Total time for Hartree multipole sum       :        5.774 s           5.777 s
          | Total time for total energy evaluation     :        0.003 s           0.001 s
          | Total time for vdW correction              :        0.090 s           0.090 s

          Partial memory accounting:
          | Residual value for overall tracked memory usage across tasks :           0.000 MB (should be 0.000 MB)
          | Peak values for overall tracked memory usage (after allocating hessian_basis_wave):
          |   Minimum:        1.612 MB (on task 1)
          |   Maximum:        1.612 MB (on task 1)
          |   Average:        1.612 MB
          | Largest tracked array allocation (hessian_basis_wave):
          |   Minimum:        0.788 MB (on task 1)
          |   Maximum:        0.788 MB (on task 1)
          |   Average:        0.788 MB
          Note:  These values currently only include a subset of arrays which are explicitly tracked.
          The "true" memory usage will be greater.

          Have a nice day.
------------------------------------------------------------
