  MPI-parallelism will be employed.
------------------------------------------------------------
          Invoking FHI-aims ...
          Version 171221_1
          Compiled on 2019/09/09 at 14:39:39 on host puhti-login2.bullx.

          When using FHI-aims, please cite the following reference:

          Volker Blum, Ralf Gehrke, Felix Hanke, Paula Havu,
          Ville Havu, Xinguo Ren, Karsten Reuter, and Matthias Scheffler,
          'Ab Initio Molecular Simulations with Numeric Atom-Centered Orbitals',
          Computer Physics Communications 180, 2175-2196 (2009)

          For any questions about FHI-aims, please visit the aimsclub website
          with its forums and wiki. Contributions to both the forums and the
          wiki are warmly encouraged - they are for you, and everyone is welcome there.

------------------------------------------------------------



  Date     :  20200801, Time     :  171516.164
  Time zero on CPU 1             :   0.119320000000000E-01  s.
  Internal wall clock time zero  :           365534116.164  s.

  FHI-aims created a unique identifier for this run for later identification
  aims_uuid : 522A67D6-AE9F-416A-A246-64FE02BA72DA

  Using        1 parallel tasks.
  Task        0 on host r18c47.bullx reporting.

  Performing system and environment tests:
  | Environment variable OMP_NUM_THREADS correctly set to 1.
  | Stacksize not measured: no C compiler
  | Checking for scalapack...
  | Testing pdtran()...
  | All pdtran() tests passed.

  Obtaining array dimensions for all initial allocations:
  
  -----------------------------------------------------------------------
  Parsing control.in (first pass over file, find array dimensions only).
  The contents of control.in will be repeated verbatim below
  unless switched off by setting 'verbatim_writeout .false.' .
  in the first line of control.in .
  -----------------------------------------------------------------------
  
  #########################################################################################
  #
  #  Volker Blum, FHI 2009 : Test run input file control.in for simple H2O
  #
  #########################################################################################
  #
  #  Physical model
  #
    xc                 pbe
    vdw_correction_hirshfeld
    spin               none
    relativistic       none
    charge             0.
  #
  #  SCF convergence
  #
    occupation_type    gaussian 0.01
    mixer              pulay
      n_max_pulay        10
      charge_mix_param   0.2
    sc_accuracy_rho    1E-5
    sc_accuracy_eev    1E-3
    sc_accuracy_etot   1E-6
    sc_accuracy_forces 1E-4
    sc_iter_limit      100
  #
  #  Relaxation
  #
  #  relax_geometry   bfgs 1.e-3
  #
  ################################################################################
  #
  #  FHI-aims code project
  #  VB, Fritz-Haber Institut, 2009
  #
  #  Suggested "light" defaults for H atom (to be pasted into control.in file)
  #  Be sure to double-check any results obtained with these settings for post-processing,
  #  e.g., with the "tight" defaults and larger basis sets.
  #
  ################################################################################
    species        H
  #     global species definitions
      nucleus             1
      mass                1.00794
  #
      l_hartree           4
  #
      cut_pot             3.5  1.5  1.0
      basis_dep_cutoff    1e-4
  #
      radial_base         24 5.0
      radial_multiplier   1
      angular_grids       specified
        division   0.2421   50
        division   0.3822  110
        division   0.4799  194
        division   0.5341  302
  #      division   0.5626  434
  #      division   0.5922  590
  #      division   0.6542  770
  #      division   0.6868 1202
  #      outer_grid  770
        outer_grid  302
  ################################################################################
  #
  #  Definition of "minimal" basis
  #
  ################################################################################
  #     valence basis states
      valence      1  s   1.
  #     ion occupancy
      ion_occ      1  s   0.5
  ################################################################################
  #
  #  Suggested additional basis functions. For production calculations,
  #  uncomment them one after another (the most important basis functions are
  #  listed first).
  #
  #  Basis constructed for dimers: 0.5 A, 0.7 A, 1.0 A, 1.5 A, 2.5 A
  #
  ################################################################################
  #  "First tier" - improvements: -1014.90 meV to -62.69 meV
       hydro 2 s 2.1
       hydro 2 p 3.5
  #  "Second tier" - improvements: -12.89 meV to -1.83 meV
  #     hydro 1 s 0.85
  #     hydro 2 p 3.7
  #     hydro 2 s 1.2
  #     hydro 3 d 7
  #  "Third tier" - improvements: -0.25 meV to -0.12 meV
  #     hydro 4 f 11.2
  #     hydro 3 p 4.8
  #     hydro 4 d 9
  #     hydro 3 s 3.2
  ################################################################################
  #
  #  FHI-aims code project
  #  VB, Fritz-Haber Institut, 2009
  #
  #  Suggested "light" defaults for C atom (to be pasted into control.in file)
  #  Be sure to double-check any results obtained with these settings for post-processing,
  #  e.g., with the "tight" defaults and larger basis sets.
  #
  ################################################################################
    species        C
  #     global species definitions
      nucleus             6
      mass                12.0107
  #
      l_hartree           4
  #
      cut_pot             3.5  1.5  1.0
      basis_dep_cutoff    1e-4
  #
      radial_base         34 5.0
      radial_multiplier   1
      angular_grids specified
        division   0.3326   50
        division   0.5710  110
        division   0.7727  194
        division   0.8772  302
  #      division   0.9334  434
  #      division   0.9625  590
  #      division   0.9924  770
  #      division   1.0230  974
  #      division   1.4589 1202
  #     outer_grid  974
       outer_grid 302
  ################################################################################
  #
  #  Definition of "minimal" basis
  #
  ################################################################################
  #     valence basis states
      valence      2  s   2.
      valence      2  p   2.
  #     ion occupancy
      ion_occ      2  s   1.
      ion_occ      2  p   1.
  ################################################################################
  #
  #  Suggested additional basis functions. For production calculations,
  #  uncomment them one after another (the most important basis functions are
  #  listed first).
  #
  #  Constructed for dimers: 1.0 A, 1.25 A, 1.5 A, 2.0 A, 3.0 A
  #
  ################################################################################
  #  "First tier" - improvements: -1214.57 meV to -155.61 meV
       hydro 2 p 1.7
       hydro 3 d 6
       hydro 2 s 4.9
  #  "Second tier" - improvements: -67.75 meV to -5.23 meV
  #     hydro 4 f 9.8
  #     hydro 3 p 5.2
  #     hydro 3 s 4.3
  #     hydro 5 g 14.4
  #     hydro 3 d 6.2
  #  "Third tier" - improvements: -2.43 meV to -0.60 meV
  #     hydro 2 p 5.6
  #     hydro 2 s 1.4
  #     hydro 3 d 4.9
  #     hydro 4 f 11.2
  #  "Fourth tier" - improvements: -0.39 meV to -0.18 meV
  #     hydro 2 p 2.1
  #     hydro 5 g 16.4
  #     hydro 4 d 13.2
  #     hydro 3 s 13.6
  #     hydro 4 f 17.6
  #  Further basis functions - improvements: -0.08 meV and below
  #     hydro 3 s 2
  #     hydro 3 p 6
  #     hydro 4 d 20
  ################################################################################
  #
  #  FHI-aims code project
  #  VB, Fritz-Haber Institut, 2009
  #
  #  Suggested "light" defaults for N atom (to be pasted into control.in file)
  #  Be sure to double-check any results obtained with these settings for post-processing,
  #  e.g., with the "tight" defaults and larger basis sets.
  #
  ################################################################################
    species        N
  #     global species definitions
      nucleus             7
      mass                14.0067
  #
      l_hartree           4
  #
      cut_pot             3.5  1.5  1.0
      basis_dep_cutoff    1e-4
  #
      radial_base         35 5.0
      radial_multiplier   1
      angular_grids       specified
        division   0.2599   50
        division   0.4601  110
        division   0.5885  194
        division   0.6503  302
  #      division   0.6939  434
  #      division   0.7396  590
  #      division   0.7632  770
  #      division   0.8122  974
  #      division   1.1604 1202
  #      outer_grid  974
        outer_grid  302
  ################################################################################
  #
  #  Definition of "minimal" basis
  #
  ################################################################################
  #     valence basis states
      valence      2  s   2.
      valence      2  p   3.
  #     ion occupancy
      ion_occ      2  s   1.
      ion_occ      2  p   2.
  ################################################################################
  #
  #  Suggested additional basis functions. For production calculations,
  #  uncomment them one after another (the most important basis functions are
  #  listed first).
  #
  #  Constructed for dimers: 1.0 A, 1.1 A, 1.5 A, 2.0 A, 3.0 A
  #
  ################################################################################
  #  "First tier" - improvements: -1193.42 meV to -220.60 meV
       hydro 2 p 1.8
       hydro 3 d 6.8
       hydro 3 s 5.8
  #  "Second tier" - improvements: -80.21 meV to -6.86 meV
  #     hydro 4 f 10.8
  #     hydro 3 p 5.8
  #     hydro 1 s 0.8
  #     hydro 5 g 16
  #     hydro 3 d 4.9
  #  "Third tier" - improvements: -4.29 meV to -0.53 meV
  #     hydro 3 s 16
  #     ionic 2 p auto
  #     hydro 3 d 6.6
  #     hydro 4 f 11.6
  #  "Fourth tier" - improvements: -0.75 meV to -0.25 meV
  #     hydro 2 p 4.5
  #     hydro 2 s 2.4
  #     hydro 5 g 14.4
  #     hydro 4 d 14.4
  #     hydro 4 f 16.8
  # Further basis functions - -0.21 meV and below
  #     hydro 3 p 14.8
  #     hydro 3 s 4.4
  #     hydro 3 d 19.6
  #     hydro 5 g 12.8
  ################################################################################
  #
  #  FHI-aims code project
  #  VB, Fritz-Haber Institut, 2009
  #
  #  Suggested "light" defaults for O atom (to be pasted into control.in file)
  #  Be sure to double-check any results obtained with these settings for post-processing,
  #  e.g., with the "tight" defaults and larger basis sets.
  #
  ################################################################################
    species        O
  #     global species definitions
      nucleus             8
      mass                15.9994
  #
      l_hartree           4
  #
      cut_pot             3.5  1.5  1.0
      basis_dep_cutoff    1e-4
  #
      radial_base         36 5.0
      radial_multiplier   1
       angular_grids specified
        division   0.2659   50
        division   0.4451  110
        division   0.6052  194
        division   0.7543  302
  #      division   0.8014  434
  #      division   0.8507  590
  #      division   0.8762  770
  #      division   0.9023  974
  #      division   1.2339 1202
  #      outer_grid 974
        outer_grid 302
  ################################################################################
  #
  #  Definition of "minimal" basis
  #
  ################################################################################
  #     valence basis states
      valence      2  s   2.
      valence      2  p   4.
  #     ion occupancy
      ion_occ      2  s   1.
      ion_occ      2  p   3.
  ################################################################################
  #
  #  Suggested additional basis functions. For production calculations,
  #  uncomment them one after another (the most important basis functions are
  #  listed first).
  #
  #  Constructed for dimers: 1.0 A, 1.208 A, 1.5 A, 2.0 A, 3.0 A
  #
  ################################################################################
  #  "First tier" - improvements: -699.05 meV to -159.38 meV
       hydro 2 p 1.8
       hydro 3 d 7.6
       hydro 3 s 6.4
  #  "Second tier" - improvements: -49.91 meV to -5.39 meV
  #     hydro 4 f 11.6
  #     hydro 3 p 6.2
  #     hydro 3 d 5.6
  #     hydro 5 g 17.6
  #     hydro 1 s 0.75
  #  "Third tier" - improvements: -2.83 meV to -0.50 meV
  #     ionic 2 p auto
  #     hydro 4 f 10.8
  #     hydro 4 d 4.7
  #     hydro 2 s 6.8
  #  "Fourth tier" - improvements: -0.40 meV to -0.12 meV
  #     hydro 3 p 5
  #     hydro 3 s 3.3
  #     hydro 5 g 15.6
  #     hydro 4 f 17.6
  #     hydro 4 d 14
  # Further basis functions - -0.08 meV and below
  #     hydro 3 s 2.1
  #     hydro 4 d 11.6
  #     hydro 3 p 16
  #     hydro 2 s 17.2
  
  -----------------------------------------------------------------------
  Completed first pass over input file control.in .
  -----------------------------------------------------------------------
  
  
  -----------------------------------------------------------------------
  Parsing geometry.in (first pass over file, find array dimensions only).
  The contents of geometry.in will be repeated verbatim below
  unless switched off by setting 'verbatim_writeout .false.' .
  in the first line of geometry.in .
  -----------------------------------------------------------------------
  
  atom  0.00000 0.00000 0.00000 C
  atom  1.09300 0.00000 0.00000 H
  atom  -0.47961 0.00000 -1.41207 N
  atom  0.31820 0.15927 -2.02848 H
  atom  -0.90467 -0.90284 -1.61290 H
  atom  -0.49584 1.26211 0.72868 C
  atom  -1.58789 1.28919 0.74431 H
  atom  -0.13407 1.27425 1.75947 H
  atom  -0.13407 2.16087 0.22380 H
  atom  -0.39425 -1.28861 0.74398 C
  atom  -0.10189 -1.56493 1.88303 O
  atom  -1.10210 -2.13717 0.06896 O
  atom  -0.44759 -2.85359 0.01113 H
  
  -----------------------------------------------------------------------
  Completed first pass over input file geometry.in .
  -----------------------------------------------------------------------
  

  Basic array size parameters:
  | Number of species                 :        4
  | Number of atoms                   :       13
  | Max. basis fn. angular momentum   :        2
  | Max. atomic/ionic basis occupied n:        2
  | Max. number of basis fn. types    :        2
  | Max. radial fns per species/type  :        3
  | Max. logarithmic grid size        :     1301
  | Max. radial integration grid size :       36
  | Max. angular integration grid size:      302
  | Max. angular grid division number :        8
  | Radial grid for Hartree potential :     1301
  | Number of spin channels           :        1

------------------------------------------------------------
          Reading file control.in.
------------------------------------------------------------
  XC: Using PBE gradient-corrected functionals.
  Spin treatment: No spin polarisation.
  Non-relativistic treatment of kinetic energy.
  Charge =   0.000000E+00: Neutral system requested explicitly.
  Occupation type: Gaussian broadening, width =   0.100000E-01 eV.
  Using pulay charge density mixing.
  Pulay mixing - number of memorized iterations:   10
  Charge density mixing - mixing parameter:     0.2000
  Convergence accuracy of self-consistent charge density:  0.1000E-04
  Convergence accuracy of sum of eigenvalues:  0.1000E-02
  Convergence accuracy of total energy:  0.1000E-05
  Convergence accuracy of forces:  0.1000E-03
  Maximum number of s.-c. iterations  :   100
 
  Reading configuration options for species H                   .
  | Found nuclear charge :   1.0000
  | Found atomic mass :    1.00794000000000      amu
  | Found l_max for Hartree potential  :   4
  | Found cutoff potl. onset [A], width [A], scale factor :    3.50000    1.50000    1.00000
  | Threshold for basis-dependent cutoff potential is   0.100000E-03
  | Found data for basic radial integration grid :    24 points, outermost radius =    5.000 A
  | Found multiplier for basic radial grid :   1
  | Found angular grid specification: user-specified.
  | Specified grid contains     5 separate shells.
  | Check grid settings after all constraints further below.
  | Found free-atom valence shell :  1 s   1.000
  | No ionic wave fns used. Skipping ion_occ.
  | Found hydrogenic basis function :  2 s   2.100
  | Found hydrogenic basis function :  2 p   3.500
  Species H                   : Missing cutoff potential type.
  Defaulting to exp(1/x)/(1-x)^2 type cutoff potential.
  Species H : No 'logarithmic' tag. Using default grid for free atom:
  | Default logarithmic grid data [bohr] : 0.1000E-03 0.1000E+03 0.1012E+01
  Species H : On-site basis accuracy parameter (for Gram-Schmidt orthonormalisation) not specified.
  Using default value basis_acc =  0.1000000E-03.
  Species H                   : Using default innermost maximum threshold i_radial=  2 for radial functions.
  Species H                   : Default cutoff onset for free atom density etc. : 0.35000000E+01 AA.
  Species H                   : Basic radial grid will be enhanced according to radial_multiplier =   1, to contain    24 grid points.
 
  Reading configuration options for species C                   .
  | Found nuclear charge :   6.0000
  | Found atomic mass :    12.0107000000000      amu
  | Found l_max for Hartree potential  :   4
  | Found cutoff potl. onset [A], width [A], scale factor :    3.50000    1.50000    1.00000
  | Threshold for basis-dependent cutoff potential is   0.100000E-03
  | Found data for basic radial integration grid :    34 points, outermost radius =    5.000 A
  | Found multiplier for basic radial grid :   1
  | Found angular grid specification: user-specified.
  | Specified grid contains     5 separate shells.
  | Check grid settings after all constraints further below.
  | Found free-atom valence shell :  2 s   2.000
  | Found free-atom valence shell :  2 p   2.000
  | No ionic wave fns used. Skipping ion_occ.
  | No ionic wave fns used. Skipping ion_occ.
  | Found hydrogenic basis function :  2 p   1.700
  | Found hydrogenic basis function :  3 d   6.000
  | Found hydrogenic basis function :  2 s   4.900
  Species C                   : Missing cutoff potential type.
  Defaulting to exp(1/x)/(1-x)^2 type cutoff potential.
  Species C : No 'logarithmic' tag. Using default grid for free atom:
  | Default logarithmic grid data [bohr] : 0.1000E-03 0.1000E+03 0.1012E+01
  Species C : On-site basis accuracy parameter (for Gram-Schmidt orthonormalisation) not specified.
  Using default value basis_acc =  0.1000000E-03.
  Species C                   : Using default innermost maximum threshold i_radial=  2 for radial functions.
  Species C                   : Default cutoff onset for free atom density etc. : 0.35000000E+01 AA.
  Species C                   : Basic radial grid will be enhanced according to radial_multiplier =   1, to contain    34 grid points.
 
  Reading configuration options for species N                   .
  | Found nuclear charge :   7.0000
  | Found atomic mass :    14.0067000000000      amu
  | Found l_max for Hartree potential  :   4
  | Found cutoff potl. onset [A], width [A], scale factor :    3.50000    1.50000    1.00000
  | Threshold for basis-dependent cutoff potential is   0.100000E-03
  | Found data for basic radial integration grid :    35 points, outermost radius =    5.000 A
  | Found multiplier for basic radial grid :   1
  | Found angular grid specification: user-specified.
  | Specified grid contains     5 separate shells.
  | Check grid settings after all constraints further below.
  | Found free-atom valence shell :  2 s   2.000
  | Found free-atom valence shell :  2 p   3.000
  | No ionic wave fns used. Skipping ion_occ.
  | No ionic wave fns used. Skipping ion_occ.
  | Found hydrogenic basis function :  2 p   1.800
  | Found hydrogenic basis function :  3 d   6.800
  | Found hydrogenic basis function :  3 s   5.800
  Species N                   : Missing cutoff potential type.
  Defaulting to exp(1/x)/(1-x)^2 type cutoff potential.
  Species N : No 'logarithmic' tag. Using default grid for free atom:
  | Default logarithmic grid data [bohr] : 0.1000E-03 0.1000E+03 0.1012E+01
  Species N : On-site basis accuracy parameter (for Gram-Schmidt orthonormalisation) not specified.
  Using default value basis_acc =  0.1000000E-03.
  Species N                   : Using default innermost maximum threshold i_radial=  2 for radial functions.
  Species N                   : Default cutoff onset for free atom density etc. : 0.35000000E+01 AA.
  Species N                   : Basic radial grid will be enhanced according to radial_multiplier =   1, to contain    35 grid points.
 
  Reading configuration options for species O                   .
  | Found nuclear charge :   8.0000
  | Found atomic mass :    15.9994000000000      amu
  | Found l_max for Hartree potential  :   4
  | Found cutoff potl. onset [A], width [A], scale factor :    3.50000    1.50000    1.00000
  | Threshold for basis-dependent cutoff potential is   0.100000E-03
  | Found data for basic radial integration grid :    36 points, outermost radius =    5.000 A
  | Found multiplier for basic radial grid :   1
  | Found angular grid specification: user-specified.
  | Specified grid contains     5 separate shells.
  | Check grid settings after all constraints further below.
  | Found free-atom valence shell :  2 s   2.000
  | Found free-atom valence shell :  2 p   4.000
  | No ionic wave fns used. Skipping ion_occ.
  | No ionic wave fns used. Skipping ion_occ.
  | Found hydrogenic basis function :  2 p   1.800
  | Found hydrogenic basis function :  3 d   7.600
  | Found hydrogenic basis function :  3 s   6.400
  Species O                   : Missing cutoff potential type.
  Defaulting to exp(1/x)/(1-x)^2 type cutoff potential.
  Species O : No 'logarithmic' tag. Using default grid for free atom:
  | Default logarithmic grid data [bohr] : 0.1000E-03 0.1000E+03 0.1012E+01
  Species O : On-site basis accuracy parameter (for Gram-Schmidt orthonormalisation) not specified.
  Using default value basis_acc =  0.1000000E-03.
  Species O                   : Using default innermost maximum threshold i_radial=  2 for radial functions.
  Species O                   : Default cutoff onset for free atom density etc. : 0.35000000E+01 AA.
  Species O                   : Basic radial grid will be enhanced according to radial_multiplier =   1, to contain    36 grid points.
 
  Finished reading input file 'control.in'. Consistency checks are next.
 
  MPI_IN_PLACE appears to work with this MPI implementation.
  | Keeping use_mpi_in_place .true. (see manual).
  Target number of points in a grid batch is not set. Defaulting to  100
  Method for grid partitioning is not set. Defaulting to parallel hash+maxmin partitioning.
  Batch size limit is not set. Defaulting to    200
  By default, will store active basis functions for each batch.
  If in need of memory, prune_basis_once .false. can be used to disable this option.
  communication_type for Hartree potential was not specified.
  Defaulting to calc_hartree .
  Pulay mixer: Number of initial linear mixing iterations not set.
  Defaulting to    0 iterations.
  Work space size for distributed Hartree potential not set.
  Defaulting to   0.200000E+03 MB.
  Algorithm-dependent basis array size parameters:
  | n_max_pulay                         :       10
  Presetting      1001 iterations before the initial mixing cycle
  is restarted anyway using the sc_init_iter criterion / keyword.
  Presetting a factor      1.000 between actual scf density residual
  and density convergence criterion sc_accuracy_rho below which sc_init_iter
  takes no effect.
  Geometry relaxation not requested: no relaxation will be performed.
  Handling of forces: Unphysical translation and rotation will be removed from forces.
  No accuracy limit for integral partition fn. given. Defaulting to  0.1000E-14.
  No threshold value for u(r) in integrations given. Defaulting to  0.1000E-05.
  No accuracy for occupation numbers given. Defaulting to  0.1000E-12.
  No threshold value for occupation numbers given. Defaulting to  0.0000E+00.
  No accuracy for fermi level given. Defaulting to  0.1000E-19.
  Maximum # of iterations to find E_F not set. Defaulting to  200.
  Preferred method for the eigenvalue solver ('KS_method') not specified in 'control.in'.
  Defaulting to serial version, 'lapack_fast'.
  Will not use alltoall communication since running on < 1024 CPUs.
  Threshold for basis singularities not set.
  Default threshold for basis singularities:  0.1000E-04
  partition_type (choice of integration weights) for integrals was not specified.
  | Using a version of the partition function of Stratmann and coworkers ('stratmann_smoother').
  | At each grid point, the set of atoms used to build the partition table is smoothly restricted to
  | only those atoms whose free-atom density would be non-zero at that grid point.
  Partitioning for Hartree potential was not defined. Using partition_type for integrals.
  | Adjusted default value of keyword multip_moments_threshold to:       0.10000000E-11
  | This value may affect high angular momentum components of the Hartree potential in periodic systems.
  No q(lm)/r^(l+1) cutoff set for long-range Hartree potential.
  | Using default value of  0.100000E-09 .
  | Verify using the multipole_threshold keyword.
  Defaulting to new monopole extrapolation.
  Density update method: automatic selection selected.
------------------------------------------------------------


------------------------------------------------------------
          Reading geometry description geometry.in.
------------------------------------------------------------
  Input structure read successfully.
  The structure contains       13 atoms,  and a total of         48.000 electrons.

  Input geometry:
  | No unit cell requested.
  | Atomic structure:
  |       Atom                x [A]            y [A]            z [A]
  |    1: Species C             0.00000000        0.00000000        0.00000000
  |    2: Species H             1.09300000        0.00000000        0.00000000
  |    3: Species N            -0.47961000        0.00000000       -1.41207000
  |    4: Species H             0.31820000        0.15927000       -2.02848000
  |    5: Species H            -0.90467000       -0.90284000       -1.61290000
  |    6: Species C            -0.49584000        1.26211000        0.72868000
  |    7: Species H            -1.58789000        1.28919000        0.74431000
  |    8: Species H            -0.13407000        1.27425000        1.75947000
  |    9: Species H            -0.13407000        2.16087000        0.22380000
  |   10: Species C            -0.39425000       -1.28861000        0.74398000
  |   11: Species O            -0.10189000       -1.56493000        1.88303000
  |   12: Species O            -1.10210000       -2.13717000        0.06896000
  |   13: Species H            -0.44759000       -2.85359000        0.01113000
  |

  | The smallest distance between any two atoms is         0.97210353 AA.
  |
  | The first atom of this pair is atom number                     12 .
  | The second atom of this pair is atom number                    13 .

  Number of empty states per atom not set in control.in - providing a guess from actual geometry.
  | Total number of empty states used during s.c.f. cycle:       29
  If you use a very high smearing, use empty_states (per atom!) in control.in to increase this value.

  Structure-dependent array size parameters: 
  | Maximum number of distinct radial functions  :       21
  | Maximum number of basis functions            :      119
  | Number of Kohn-Sham states (occupied + empty):       53
------------------------------------------------------------

------------------------------------------------------------
          Preparing all fixed parts of the calculation.
------------------------------------------------------------
  Determining machine precision:
    2.225073858507201E-308
  Setting up grids for atomic and cluster calculations.

  Creating wave function, potential, and density for free atoms.

  Species: H

  List of occupied orbitals and eigenvalues:
    n    l              occ      energy [Ha]    energy [eV]
    1    0           1.0000        -0.237589        -6.4651


  Species: C

  List of occupied orbitals and eigenvalues:
    n    l              occ      energy [Ha]    energy [eV]
    1    0           2.0000       -10.038835      -273.1706
    2    0           2.0000        -0.502696       -13.6791
    2    1           2.0000        -0.191971        -5.2238


  Species: N

  List of occupied orbitals and eigenvalues:
    n    l              occ      energy [Ha]    energy [eV]
    1    0           2.0000       -14.128000      -384.4424
    2    0           2.0000        -0.681077       -18.5330
    2    1           3.0000        -0.259788        -7.0692


  Species: O

  List of occupied orbitals and eigenvalues:
    n    l              occ      energy [Ha]    energy [eV]
    1    0           2.0000       -18.898188      -514.2459
    2    0           2.0000        -0.878505       -23.9053
    2    1           4.0000        -0.331779        -9.0282

  Creating fixed part of basis set: Ionic, confined, hydrogenic.
 
  H                    hydrogenic:
 
  List of hydrogenic basis orbitals: 
    n    l      effective z      eigenvalue [eV]  inner max. [A]     outer max. [A]     outer radius [A]   
    2    0         2.100000       -14.9728           0.193243           1.317208           4.583499
    2    1         3.500000       -41.6669           0.602369           0.602369           3.723403
 
 
  C                    hydrogenic:
 
  List of hydrogenic basis orbitals: 
    n    l      effective z      eigenvalue [eV]  inner max. [A]     outer max. [A]     outer radius [A]   
    2    1         1.700000        -9.7616           1.230570           1.230570           4.607917
    3    2         6.000000       -54.4224           0.792453           0.792453           3.883070
    2    0         4.900000       -81.6679           0.082559           0.562749           3.078220
 
 
  N                    hydrogenic:
 
  List of hydrogenic basis orbitals: 
    n    l      effective z      eigenvalue [eV]  inner max. [A]     outer max. [A]     outer radius [A]   
    2    1         1.800000       -10.9749           1.177451           1.177451           4.573712
    3    2         6.800000       -69.9026           0.704619           0.704619           3.538137
    3    0         5.800000       -50.8545           0.067388           1.191934           4.250239
 
 
  O                    hydrogenic:
 
  List of hydrogenic basis orbitals: 
    n    l      effective z      eigenvalue [eV]  inner max. [A]     outer max. [A]     outer radius [A]   
    2    1         1.800000       -10.9749           1.164242           1.164242           4.578029
    3    2         7.600000       -87.3180           0.624125           0.624125           3.251020
    3    0         6.400000       -61.9207           0.061167           1.081902           4.001998
 

  Adding cutoff potential to free-atom effective potential.
  Creating atomic-like basis functions for current effective potential.

  Species H                   :

  List of atomic basis orbitals and eigenvalues:
    n    l      energy [Ha]    energy [eV]    outer radius [A]
    1    0        -0.237589        -6.4651       4.527807


  Species C                   :

  List of atomic basis orbitals and eigenvalues:
    n    l      energy [Ha]    energy [eV]    outer radius [A]
    1    0       -10.038835      -273.1706       1.934409
    2    0        -0.502696       -13.6791       4.496620
    2    1        -0.191971        -5.2238       4.551928


  Species N                   :

  List of atomic basis orbitals and eigenvalues:
    n    l      energy [Ha]    energy [eV]    outer radius [A]
    1    0       -14.128000      -384.4424       1.637919
    2    0        -0.681077       -18.5330       4.463241
    2    1        -0.259788        -7.0692       4.518138


  Species O                   :

  List of atomic basis orbitals and eigenvalues:
    n    l      energy [Ha]    energy [eV]    outer radius [A]
    1    0       -18.898188      -514.2459       1.415765
    2    0        -0.878505       -23.9053       4.413171
    2    1        -0.331779        -9.0282       4.522403

  Assembling full basis from fixed parts.
  | Species H :   atomic orbital   1 s accepted.
  | Species H :    hydro orbital   2 s accepted.
  | Species H :    hydro orbital   2 p accepted.
  | Species C :   atomic orbital   1 s accepted.
  | Species C :    hydro orbital   2 s accepted.
  | Species C :   atomic orbital   2 s accepted.
  | Species C :   atomic orbital   2 p accepted.
  | Species C :    hydro orbital   2 p accepted.
  | Species C :    hydro orbital   3 d accepted.
  | Species N :   atomic orbital   1 s accepted.
  | Species N :    hydro orbital   3 s accepted.
  | Species N :   atomic orbital   2 s accepted.
  | Species N :   atomic orbital   2 p accepted.
  | Species N :    hydro orbital   2 p accepted.
  | Species N :    hydro orbital   3 d accepted.
  | Species O :   atomic orbital   1 s accepted.
  | Species O :    hydro orbital   3 s accepted.
  | Species O :   atomic orbital   2 s accepted.
  | Species O :   atomic orbital   2 p accepted.
  | Species O :    hydro orbital   2 p accepted.
  | Species O :    hydro orbital   3 d accepted.
 
  Basis size parameters after reduction:
  | Total number of radial functions:       21
  | Total number of basis functions :      119
 
  Per-task memory consumption for arrays in subroutine allocate_ext:
  |           5.250512MB.
  Testing on-site integration grid accuracy.
  |  Species  Function  <phi|h_atom|phi> (log., in eV)  <phi|h_atom|phi> (rad., in eV)
           1        1                 -6.4663192853                 -6.4651273558
           1        2                 13.7111246313                 13.7170609718
           1        3                 25.2673269279                 25.2674696378
           2        4               -273.1705927641               -273.1705631568
           2        5                -10.7109323383                -10.7107120029
           2        6                 17.4381822266                 17.4352413244
           2        7                 -5.2255326521                 -5.2270484734
           2        8                  8.6835629259                  8.6603288385
           2        9                 27.4952418996                 27.4953360207
           3       10               -384.4424306495               -384.4423701208
           3       11                 12.5842251816                 12.5842222903
           3       12                -15.7264628251                -15.7264433455
           3       13                 -7.0696854293                 -7.0701769954
           3       14                  8.8090390882                  8.7901077751
           3       15                 35.9586762123                 35.9588528632
           4       16               -514.2458688638               -514.2457643834
           4       17                 15.1795651126                 15.1795290741
           4       18                -21.5359799773                -21.5360846186
           4       19                 -9.0283069236                 -9.0284644067
           4       20                  8.3027758564                  8.2834874195
           4       21                 45.8339351984                 45.8338762259

  Preparing densities etc. for the partition functions (integrals / Hartree potential).

  Preparations completed.
  max(cpu_time)          :      0.151 s.
  Wall clock time (cpu1) :      0.153 s.
------------------------------------------------------------

------------------------------------------------------------
          Begin self-consistency loop: Initialization.

          Date     :  20200801, Time     :  171516.331
------------------------------------------------------------

  Initializing index lists of integration centers etc. from given atomic structure:
  | Number of centers in hartree potential         :        13
  | Number of centers in hartree multipole         :        13
  | Number of centers in electron density summation:        13
  | Number of centers in basis integrals           :        13
  | Number of centers in integrals                 :        13
  | Number of centers in hamiltonian               :        13
  Partitioning the integration grid into batches with parallel hashing+maxmin method.
  | Number of batches:      953
  | Maximal batch size:     138
  | Minimal batch size:      66
  | Average batch size:      73.081
  | Standard deviation of batch sizes:      17.904

  Integration load balanced across     1 MPI tasks.
  Work distribution over tasks is as follows:
  Task     0 has      69646 integration points.
  Initializing partition tables, free-atom densities, potentials, etc. across the integration grid (initialize_grid_storage).
  | initialize_grid_storage: Actual outermost partition radius vs. multipole_radius_free
  | (-- VB: in principle, multipole_radius_free should be larger, hence this output)
  | Species        1: Confinement radius =              4.999999999999999 AA, multipole_radius_free =              5.054417573612229 AA.
  | Species        1: outer_partition_radius set to              5.054417573612229 AA .
  | Species        2: Confinement radius =              4.999999999999999 AA, multipole_radius_free =              5.019602836301480 AA.
  | Species        2: outer_partition_radius set to              5.019602836301480 AA .
  | Species        3: Confinement radius =              4.999999999999999 AA, multipole_radius_free =              5.043624274424571 AA.
  | Species        3: outer_partition_radius set to              5.043624274424571 AA .
  | Species        4: Confinement radius =              4.999999999999999 AA, multipole_radius_free =              5.048384829883283 AA.
  | Species        4: outer_partition_radius set to              5.048384829883283 AA .
  | Original list of interatomic distances with          13 x         13 entries is created.
  | Net number of integration points:    69646
  | of which are non-zero points    :    59602
  Renormalizing the initial density to the exact electron count on the 3D integration grid.
  | Initial density: Formal number of electrons (from input files) :      48.0000000000
  | Integrated number of electrons on 3D grid     :      47.9999409578
  | Charge integration error                      :      -0.0000590422
  | Normalization factor for density and gradient :       1.0000012300
  Obtaining max. number of non-zero basis functions in each batch (get_n_compute_maxes).
  | Maximal number of non-zero basis functions:      119 in task     0
  Selecting the method for density update.
  Loop over occupied states selected for charge density update.
  Allocating        0.050 MB for KS_eigenvector
  Integrating Hamiltonian matrix: batch-based integration.
  Time summed over all CPUs for integration: real work        0.497 s, elapsed        0.497 s
  Integrating overlap matrix.
  Time summed over all CPUs for integration: real work        0.210 s, elapsed        0.210 s

  Updating Kohn-Sham eigenvalues and eigenvectors using ELSI and the ELPA eigensolver.
  Overlap matrix is nonsingular
  | Lowest eigenvalue of overlap  :  0.46E-02
  | Highest eigenvalue of overlap :  0.61E+01
  Finished singularity check of overlap matrix
  | Time :     0.002 s
  Finished Cholesky decomposition
  | Time :     0.000 s
  Finished transformation to standard eigenproblem
  | Time :     0.000 s
  Starting LAPACK eigensolver
  Finished solving standard eigenproblem
  | Time :     0.002 s
  Finished back-transformation of eigenvectors
  | Time :     0.000 s

  Obtaining occupation numbers and chemical potential using ELSI.
  | Chemical potential (Fermi level):    -9.79531767eV
  Writing Kohn-Sham eigenvalues.

  State    Occupation    Eigenvalue [Ha]    Eigenvalue [eV]
      1       2.00000         -19.008452         -517.24628
      2       2.00000         -18.977532         -516.40491
      3       2.00000         -14.245798         -387.64789
      4       2.00000         -10.166584         -276.64684
      5       2.00000         -10.141269         -275.95798
      6       2.00000         -10.132153         -275.70991
      7       2.00000          -1.185727          -32.26526
      8       2.00000          -1.096141          -29.82751
      9       2.00000          -0.990767          -26.96015
     10       2.00000          -0.861742          -23.44920
     11       2.00000          -0.754425          -20.52894
     12       2.00000          -0.683950          -18.61123
     13       2.00000          -0.627508          -17.07536
     14       2.00000          -0.610819          -16.62123
     15       2.00000          -0.583218          -15.87018
     16       2.00000          -0.568385          -15.46655
     17       2.00000          -0.552560          -15.03592
     18       2.00000          -0.534549          -14.54582
     19       2.00000          -0.516636          -14.05837
     20       2.00000          -0.496414          -13.50811
     21       2.00000          -0.463506          -12.61264
     22       2.00000          -0.429258          -11.68070
     23       2.00000          -0.405691          -11.03941
     24       2.00000          -0.386579          -10.51935
     25       0.00000          -0.161805           -4.40293
     26       0.00000          -0.061085           -1.66221
     27       0.00000          -0.029478           -0.80215
     28       0.00000          -0.023250           -0.63268
     29       0.00000           0.001167            0.03175
     30       0.00000           0.010790            0.29362
     31       0.00000           0.022571            0.61418
     32       0.00000           0.029282            0.79682
     33       0.00000           0.040580            1.10424
     34       0.00000           0.072405            1.97025
     35       0.00000           0.086763            2.36095
     36       0.00000           0.132169            3.59651
     37       0.00000           0.162184            4.41325
     38       0.00000           0.198585            5.40377
     39       0.00000           0.210303            5.72264
     40       0.00000           0.224033            6.09624
     41       0.00000           0.256402            6.97705
     42       0.00000           0.279978            7.61860
     43       0.00000           0.286733            7.80241
     44       0.00000           0.315254            8.57851
     45       0.00000           0.338501            9.21107
     46       0.00000           0.364559            9.92017
     47       0.00000           0.380138           10.34408
     48       0.00000           0.388817           10.58026
     49       0.00000           0.420592           11.44489
     50       0.00000           0.496863           13.52034
     51       0.00000           0.505918           13.76673
     52       0.00000           0.523737           14.25162
     53       0.00000           0.557167           15.16129

  Highest occupied state (VBM) at    -10.51935290 eV
  | Occupation number:      2.00000000

  Lowest unoccupied state (CBM) at    -4.40292700 eV
  | Occupation number:      0.00000000

  Overall HOMO-LUMO gap:      6.11642590 eV.
  Calculating total energy contributions from superposition of free atom densities.

  Total energy components:
  | Sum of eigenvalues            :        -188.83932512 Ha       -5138.57948461 eV
  | XC energy correction          :         -41.78818138 Ha       -1137.11427122 eV
  | XC potential correction       :          53.71926439 Ha        1461.77555834 eV
  | Free-atom electrostatic energy:        -146.85241308 Ha       -3996.05747703 eV
  | Hartree energy correction     :           0.00000000 Ha           0.00000000 eV
  | vdW energy correction         :           0.00000000 Ha           0.00000000 eV
  | Entropy correction            :           0.00000000 Ha           0.00000000 eV
  | ---------------------------
  | Total energy                  :        -323.76065520 Ha       -8809.97567451 eV
  | Total energy, T -> 0          :        -323.76065520 Ha       -8809.97567451 eV  <-- do not rely on this value for anything but (periodic) metals
  | Electronic free energy        :        -323.76065520 Ha       -8809.97567451 eV

  Derived energy quantities:
  | Kinetic energy                :         320.49506408 Ha        8721.11441908 eV
  | Electrostatic energy          :        -602.46753789 Ha      -16393.97582238 eV
  | Energy correction for multipole
  | error in Hartree potential    :           0.00000000 Ha           0.00000000 eV
  | Sum of eigenvalues per atom                           :        -395.27534497 eV
  | Total energy (T->0) per atom                          :        -677.69043650 eV  <-- do not rely on this value for anything but (periodic) metals
  | Electronic free energy per atom                       :        -677.69043650 eV
  Initialize hartree_potential_storage
  Max. number of atoms included in rho_multipole:           13

  End scf initialization - timings             :  max(cpu_time)    wall_clock(cpu1)
  | Time for scf. initialization               :        1.152 s           1.153 s
  | Boundary condition initialization          :        0.000 s           0.000 s
  | Integration                                :        0.707 s           0.707 s
  | Solution of K.-S. eqns.                    :        0.004 s           0.005 s
  | Grid partitioning                          :        0.113 s           0.113 s
  | Preloading free-atom quantities on grid    :        0.002 s           0.002 s
  | Free-atom superposition energy             :        0.085 s           0.085 s
  | Total energy evaluation                    :        0.000 s           0.000 s

  Partial memory accounting:
  | Current value for overall tracked memory usage on task 0  :           0.165 MB
  | Peak value for overall tracked memory usage on task 0     :           0.676 MB after allocating wave
  | Largest tracked array allocation on task 0 so far         :           0.131 MB  when allocating H_times_psi
  Note:  These values currently only include a subset of arrays which are explicitly tracked.
  The "true" memory usage will be greater.
------------------------------------------------------------

------------------------------------------------------------
          Begin self-consistency iteration #    1

  Date     :  20200801, Time     :  171517.485
------------------------------------------------------------
  Evaluating new KS density.
  Integration grid: deviation in total charge (<rho> - N_e) =   7.105427E-14
  Pulay mixing of updated and previous charge densities.

  Evaluating partitioned Hartree potential by multipole expansion.
  | Analytical far-field extrapolation by fixed multipoles:
  | Hartree multipole sum: apparent total charge =  -0.165582E-03
  Summing up the Hartree potential.
  Time summed over all CPUs for potential: real work        0.284 s, elapsed        0.284 s
  | RMS charge density error from multipole expansion :   0.589758E-02

  Integrating Hamiltonian matrix: batch-based integration.
  Time summed over all CPUs for integration: real work        0.501 s, elapsed        0.501 s

  Updating Kohn-Sham eigenvalues and eigenvectors using ELSI and the ELPA eigensolver.
  Finished Cholesky decomposition
  | Time :     0.000 s
  Finished transformation to standard eigenproblem
  | Time :     0.000 s
  Starting LAPACK eigensolver
  Finished solving standard eigenproblem
  | Time :     0.002 s
  Finished back-transformation of eigenvectors
  | Time :     0.000 s

  Obtaining occupation numbers and chemical potential using ELSI.
  | Chemical potential (Fermi level):    -4.68031318eV
  Writing Kohn-Sham eigenvalues.

  State    Occupation    Eigenvalue [Ha]    Eigenvalue [eV]
      1       2.00000         -18.903626         -514.39385
      2       2.00000         -18.841113         -512.69278
      3       2.00000         -14.093947         -383.51582
      4       2.00000         -10.119749         -275.37238
      5       2.00000         -10.061954         -273.79971
      6       2.00000         -10.026338         -272.83053
      7       2.00000          -1.138635          -30.98384
      8       2.00000          -1.035594          -28.17995
      9       2.00000          -0.920062          -25.03617
     10       2.00000          -0.793408          -21.58972
     11       2.00000          -0.702587          -19.11836
     12       2.00000          -0.639647          -17.40569
     13       2.00000          -0.572585          -15.58084
     14       2.00000          -0.549613          -14.95572
     15       2.00000          -0.528143          -14.37150
     16       2.00000          -0.509699          -13.86961
     17       2.00000          -0.490443          -13.34563
     18       2.00000          -0.470696          -12.80830
     19       2.00000          -0.449777          -12.23905
     20       2.00000          -0.437368          -11.90140
     21       2.00000          -0.405141          -11.02444
     22       2.00000          -0.374810          -10.19910
     23       2.00000          -0.335804           -9.13770
     24       2.00000          -0.310774           -8.45660
     25       0.00000          -0.128639           -3.50046
     26       0.00000          -0.040204           -1.09401
     27       0.00000          -0.005750           -0.15645
     28       0.00000           0.016346            0.44480
     29       0.00000           0.031588            0.85955
     30       0.00000           0.054626            1.48646
     31       0.00000           0.063004            1.71443
     32       0.00000           0.075674            2.05920
     33       0.00000           0.081718            2.22366
     34       0.00000           0.108386            2.94934
     35       0.00000           0.125897            3.42582
     36       0.00000           0.160399            4.36468
     37       0.00000           0.185693            5.05297
     38       0.00000           0.226937            6.17527
     39       0.00000           0.243596            6.62857
     40       0.00000           0.263460            7.16910
     41       0.00000           0.293074            7.97494
     42       0.00000           0.313312            8.52566
     43       0.00000           0.322851            8.78521
     44       0.00000           0.353055            9.60713
     45       0.00000           0.379182           10.31806
     46       0.00000           0.402681           10.95750
     47       0.00000           0.413896           11.26268
     48       0.00000           0.430031           11.70174
     49       0.00000           0.459259           12.49706
     50       0.00000           0.528773           14.38864
     51       0.00000           0.541365           14.73130
     52       0.00000           0.564705           15.36640
     53       0.00000           0.589450           16.03975

  Highest occupied state (VBM) at     -8.45660235 eV
  | Occupation number:      2.00000000

  Lowest unoccupied state (CBM) at    -3.50045818 eV
  | Occupation number:      0.00000000

  Overall HOMO-LUMO gap:      4.95614417 eV.

  Total energy components:
  | Sum of eigenvalues            :        -185.42303092 Ha       -5045.61738954 eV
  | XC energy correction          :         -42.11812452 Ha       -1146.09248079 eV
  | XC potential correction       :          54.14842899 Ha        1473.45372135 eV
  | Free-atom electrostatic energy:        -146.85241308 Ha       -3996.05747703 eV
  | Hartree energy correction     :          -3.32958222 Ha         -90.60254190 eV
  | vdW energy correction         :           0.00000000 Ha           0.00000000 eV
  | Entropy correction            :           0.00000000 Ha           0.00000000 eV
  | ---------------------------
  | Total energy                  :        -323.57472175 Ha       -8804.91616790 eV
  | Total energy, T -> 0          :        -323.57472175 Ha       -8804.91616790 eV  <-- do not rely on this value for anything but (periodic) metals
  | Electronic free energy        :        -323.57472175 Ha       -8804.91616790 eV

  Derived energy quantities:
  | Kinetic energy                :         322.29591031 Ha        8770.11793813 eV
  | Electrostatic energy          :        -603.75250753 Ha      -16428.94162524 eV
  | Energy correction for multipole
  | error in Hartree potential    :           0.01229354 Ha           0.33452434 eV
  | Sum of eigenvalues per atom                           :        -388.12441458 eV
  | Total energy (T->0) per atom                          :        -677.30124368 eV  <-- do not rely on this value for anything but (periodic) metals
  | Electronic free energy per atom                       :        -677.30124368 eV

  Self-consistency convergence accuracy:
  | Change of charge density      :  0.5876E+00
  | Change of sum of eigenvalues  :  0.9296E+02 eV
  | Change of total energy        :  0.5060E+01 eV

  End self-consistency iteration #     1       :  max(cpu_time)    wall_clock(cpu1)
  | Time for this iteration                    :        1.208 s           1.208 s
  | Charge density update                      :        0.405 s           0.405 s
  | Density mixing                             :        0.006 s           0.006 s
  | Hartree multipole update                   :        0.009 s           0.008 s
  | Hartree multipole summation                :        0.285 s           0.285 s
  | Integration                                :        0.501 s           0.502 s
  | Solution of K.-S. eqns.                    :        0.002 s           0.002 s
  | Total energy evaluation                    :        0.000 s           0.000 s

  Partial memory accounting:
  | Current value for overall tracked memory usage on task 0  :           0.165 MB
  | Peak value for overall tracked memory usage on task 0     :           0.691 MB after allocating gradient_basis_wave
  | Largest tracked array allocation on task 0 so far         :           0.394 MB  when allocating gradient_basis_wave
  Note:  These values currently only include a subset of arrays which are explicitly tracked.
  The "true" memory usage will be greater.
------------------------------------------------------------

------------------------------------------------------------
          Begin self-consistency iteration #    2

  Date     :  20200801, Time     :  171518.694
------------------------------------------------------------
  Evaluating new KS density.
  Integration grid: deviation in total charge (<rho> - N_e) =  -4.263256E-14
  Pulay mixing of updated and previous charge densities.

  Evaluating partitioned Hartree potential by multipole expansion.
  | Analytical far-field extrapolation by fixed multipoles:
  | Hartree multipole sum: apparent total charge =  -0.300723E-03
  Summing up the Hartree potential.
  Time summed over all CPUs for potential: real work        0.284 s, elapsed        0.284 s
  | RMS charge density error from multipole expansion :   0.139628E-01

  Integrating Hamiltonian matrix: batch-based integration.
  Time summed over all CPUs for integration: real work        0.506 s, elapsed        0.506 s

  Updating Kohn-Sham eigenvalues and eigenvectors using ELSI and the ELPA eigensolver.
  Finished Cholesky decomposition
  | Time :     0.000 s
  Finished transformation to standard eigenproblem
  | Time :     0.000 s
  Starting LAPACK eigensolver
  Finished solving standard eigenproblem
  | Time :     0.001 s
  Finished back-transformation of eigenvectors
  | Time :     0.000 s

  Obtaining occupation numbers and chemical potential using ELSI.
  | Chemical potential (Fermi level):    -3.52892138eV
  Highest occupied state (VBM) at     -6.39139888 eV
  | Occupation number:      2.00000000

  Lowest unoccupied state (CBM) at    -2.35362190 eV
  | Occupation number:      0.00000000

  Overall HOMO-LUMO gap:      4.03777698 eV.

  Checking to see if s.c.f. parameters should be adjusted.

  Total energy components:
  | Sum of eigenvalues            :        -181.84787208 Ha       -4948.33236757 eV
  | XC energy correction          :         -42.47765729 Ha       -1155.87586515 eV
  | XC potential correction       :          54.61457108 Ha        1486.13809286 eV
  | Free-atom electrostatic energy:        -146.85241308 Ha       -3996.05747703 eV
  | Hartree energy correction     :          -6.93155387 Ha        -188.61717757 eV
  | vdW energy correction         :           0.00000000 Ha           0.00000000 eV
  | Entropy correction            :           0.00000000 Ha           0.00000000 eV
  | ---------------------------
  | Total energy                  :        -323.49492524 Ha       -8802.74479446 eV
  | Total energy, T -> 0          :        -323.49492524 Ha       -8802.74479446 eV  <-- do not rely on this value for anything but (periodic) metals
  | Electronic free energy        :        -323.49492524 Ha       -8802.74479446 eV

  Derived energy quantities:
  | Kinetic energy                :         323.61401300 Ha        8805.98533743 eV
  | Electrostatic energy          :        -604.63128095 Ha      -16452.85426674 eV
  | Energy correction for multipole
  | error in Hartree potential    :           0.02701000 Ha           0.73497963 eV
  | Sum of eigenvalues per atom                           :        -380.64095135 eV
  | Total energy (T->0) per atom                          :        -677.13421496 eV  <-- do not rely on this value for anything but (periodic) metals
  | Electronic free energy per atom                       :        -677.13421496 eV

  Self-consistency convergence accuracy:
  | Change of charge density      :  0.3673E+00
  | Change of sum of eigenvalues  :  0.9729E+02 eV
  | Change of total energy        :  0.2171E+01 eV

  End self-consistency iteration #     2       :  max(cpu_time)    wall_clock(cpu1)
  | Time for this iteration                    :        1.203 s           1.204 s
  | Charge density update                      :        0.394 s           0.394 s
  | Density mixing                             :        0.007 s           0.007 s
  | Hartree multipole update                   :        0.009 s           0.009 s
  | Hartree multipole summation                :        0.285 s           0.285 s
  | Integration                                :        0.506 s           0.506 s
  | Solution of K.-S. eqns.                    :        0.002 s           0.002 s
  | Total energy evaluation                    :        0.000 s           0.001 s

  Partial memory accounting:
  | Current value for overall tracked memory usage on task 0  :           0.166 MB
  | Peak value for overall tracked memory usage on task 0     :           0.691 MB after allocating gradient_basis_wave
  | Largest tracked array allocation on task 0 so far         :           0.394 MB  when allocating gradient_basis_wave
  Note:  These values currently only include a subset of arrays which are explicitly tracked.
  The "true" memory usage will be greater.
------------------------------------------------------------

------------------------------------------------------------
          Begin self-consistency iteration #    3

  Date     :  20200801, Time     :  171519.900
------------------------------------------------------------
  Evaluating new KS density.
  Integration grid: deviation in total charge (<rho> - N_e) =   2.131628E-14
  Pulay mixing of updated and previous charge densities.

  Evaluating partitioned Hartree potential by multipole expansion.
  | Analytical far-field extrapolation by fixed multipoles:
  | Hartree multipole sum: apparent total charge =  -0.395784E-03
  Summing up the Hartree potential.
  Time summed over all CPUs for potential: real work        0.285 s, elapsed        0.285 s
  | RMS charge density error from multipole expansion :   0.219883E-01

  Integrating Hamiltonian matrix: batch-based integration.
  Time summed over all CPUs for integration: real work        0.492 s, elapsed        0.492 s

  Updating Kohn-Sham eigenvalues and eigenvectors using ELSI and the ELPA eigensolver.
  Finished Cholesky decomposition
  | Time :     0.000 s
  Finished transformation to standard eigenproblem
  | Time :     0.000 s
  Starting LAPACK eigensolver
  Finished solving standard eigenproblem
  | Time :     0.001 s
  Finished back-transformation of eigenvectors
  | Time :     0.000 s

  Obtaining occupation numbers and chemical potential using ELSI.
  | Chemical potential (Fermi level):    -2.86807993eV
  Highest occupied state (VBM) at     -5.70567649 eV
  | Occupation number:      2.00000000

  Lowest unoccupied state (CBM) at    -1.69958860 eV
  | Occupation number:      0.00000000

  Overall HOMO-LUMO gap:      4.00608789 eV.

  Total energy components:
  | Sum of eigenvalues            :        -180.53010471 Ha       -4912.47409308 eV
  | XC energy correction          :         -42.63082995 Ha       -1160.04390534 eV
  | XC potential correction       :          54.81007942 Ha        1491.45814554 eV
  | Free-atom electrostatic energy:        -146.85241308 Ha       -3996.05747703 eV
  | Hartree energy correction     :          -8.27841158 Ha        -225.26704062 eV
  | vdW energy correction         :           0.00000000 Ha           0.00000000 eV
  | Entropy correction            :           0.00000000 Ha           0.00000000 eV
  | ---------------------------
  | Total energy                  :        -323.48167990 Ha       -8802.38437053 eV
  | Total energy, T -> 0          :        -323.48167990 Ha       -8802.38437053 eV  <-- do not rely on this value for anything but (periodic) metals
  | Electronic free energy        :        -323.48167990 Ha       -8802.38437053 eV

  Derived energy quantities:
  | Kinetic energy                :         323.21530449 Ha        8795.13592678 eV
  | Electrostatic energy          :        -604.06615444 Ha      -16437.47639197 eV
  | Energy correction for multipole
  | error in Hartree potential    :           0.03816540 Ha           1.03853329 eV
  | Sum of eigenvalues per atom                           :        -377.88262254 eV
  | Total energy (T->0) per atom                          :        -677.10649004 eV  <-- do not rely on this value for anything but (periodic) metals
  | Electronic free energy per atom                       :        -677.10649004 eV

  Self-consistency convergence accuracy:
  | Change of charge density      :  0.2059E+00
  | Change of sum of eigenvalues  :  0.3586E+02 eV
  | Change of total energy        :  0.3604E+00 eV

  End self-consistency iteration #     3       :  max(cpu_time)    wall_clock(cpu1)
  | Time for this iteration                    :        1.191 s           1.191 s
  | Charge density update                      :        0.393 s           0.393 s
  | Density mixing                             :        0.009 s           0.008 s
  | Hartree multipole update                   :        0.009 s           0.009 s
  | Hartree multipole summation                :        0.285 s           0.286 s
  | Integration                                :        0.492 s           0.492 s
  | Solution of K.-S. eqns.                    :        0.002 s           0.002 s
  | Total energy evaluation                    :        0.000 s           0.000 s

  Partial memory accounting:
  | Current value for overall tracked memory usage on task 0  :           0.166 MB
  | Peak value for overall tracked memory usage on task 0     :           0.692 MB after allocating gradient_basis_wave
  | Largest tracked array allocation on task 0 so far         :           0.394 MB  when allocating gradient_basis_wave
  Note:  These values currently only include a subset of arrays which are explicitly tracked.
  The "true" memory usage will be greater.
------------------------------------------------------------

------------------------------------------------------------
          Begin self-consistency iteration #    4

  Date     :  20200801, Time     :  171521.094
------------------------------------------------------------
  Evaluating new KS density.
  Integration grid: deviation in total charge (<rho> - N_e) =  -3.552714E-14
  Pulay mixing of updated and previous charge densities.

  Evaluating partitioned Hartree potential by multipole expansion.
  | Analytical far-field extrapolation by fixed multipoles:
  | Hartree multipole sum: apparent total charge =  -0.427500E-03
  Summing up the Hartree potential.
  Time summed over all CPUs for potential: real work        0.283 s, elapsed        0.283 s
  | RMS charge density error from multipole expansion :   0.254063E-01

  Integrating Hamiltonian matrix: batch-based integration.
  Time summed over all CPUs for integration: real work        0.496 s, elapsed        0.496 s

  Updating Kohn-Sham eigenvalues and eigenvectors using ELSI and the ELPA eigensolver.
  Finished Cholesky decomposition
  | Time :     0.000 s
  Finished transformation to standard eigenproblem
  | Time :     0.000 s
  Starting LAPACK eigensolver
  Finished solving standard eigenproblem
  | Time :     0.002 s
  Finished back-transformation of eigenvectors
  | Time :     0.000 s

  Obtaining occupation numbers and chemical potential using ELSI.
  | Chemical potential (Fermi level):    -2.75533465eV
  Highest occupied state (VBM) at     -5.53539313 eV
  | Occupation number:      2.00000000

  Lowest unoccupied state (CBM) at    -1.60748833 eV
  | Occupation number:      0.00000000

  Overall HOMO-LUMO gap:      3.92790481 eV.

  Total energy components:
  | Sum of eigenvalues            :        -180.37515175 Ha       -4908.25760850 eV
  | XC energy correction          :         -42.66884752 Ha       -1161.07841592 eV
  | XC potential correction       :          54.85799463 Ha        1492.76198471 eV
  | Free-atom electrostatic energy:        -146.85241308 Ha       -3996.05747703 eV
  | Hartree energy correction     :          -8.44234043 Ha        -229.72777143 eV
  | vdW energy correction         :           0.00000000 Ha           0.00000000 eV
  | Entropy correction            :           0.00000000 Ha           0.00000000 eV
  | ---------------------------
  | Total energy                  :        -323.48075814 Ha       -8802.35928816 eV
  | Total energy, T -> 0          :        -323.48075814 Ha       -8802.35928816 eV  <-- do not rely on this value for anything but (periodic) metals
  | Electronic free energy        :        -323.48075814 Ha       -8802.35928816 eV

  Derived energy quantities:
  | Kinetic energy                :         322.83319387 Ha        8784.73816785 eV
  | Electrostatic energy          :        -603.64510450 Ha      -16426.01904009 eV
  | Energy correction for multipole
  | error in Hartree potential    :           0.04237765 Ha           1.15315449 eV
  | Sum of eigenvalues per atom                           :        -377.55827758 eV
  | Total energy (T->0) per atom                          :        -677.10456063 eV  <-- do not rely on this value for anything but (periodic) metals
  | Electronic free energy per atom                       :        -677.10456063 eV

  Self-consistency convergence accuracy:
  | Change of charge density      :  0.6587E-01
  | Change of sum of eigenvalues  :  0.4216E+01 eV
  | Change of total energy        :  0.2508E-01 eV

  End self-consistency iteration #     4       :  max(cpu_time)    wall_clock(cpu1)
  | Time for this iteration                    :        1.188 s           1.189 s
  | Charge density update                      :        0.387 s           0.388 s
  | Density mixing                             :        0.010 s           0.010 s
  | Hartree multipole update                   :        0.009 s           0.009 s
  | Hartree multipole summation                :        0.283 s           0.283 s
  | Integration                                :        0.496 s           0.496 s
  | Solution of K.-S. eqns.                    :        0.002 s           0.002 s
  | Total energy evaluation                    :        0.000 s           0.000 s

  Partial memory accounting:
  | Current value for overall tracked memory usage on task 0  :           0.166 MB
  | Peak value for overall tracked memory usage on task 0     :           0.692 MB after allocating gradient_basis_wave
  | Largest tracked array allocation on task 0 so far         :           0.394 MB  when allocating gradient_basis_wave
  Note:  These values currently only include a subset of arrays which are explicitly tracked.
  The "true" memory usage will be greater.
------------------------------------------------------------

------------------------------------------------------------
          Begin self-consistency iteration #    5

  Date     :  20200801, Time     :  171522.284
------------------------------------------------------------
  Evaluating new KS density.
  Integration grid: deviation in total charge (<rho> - N_e) =  -1.421085E-14
  Pulay mixing of updated and previous charge densities.

  Evaluating partitioned Hartree potential by multipole expansion.
  | Analytical far-field extrapolation by fixed multipoles:
  | Hartree multipole sum: apparent total charge =  -0.421561E-03
  Summing up the Hartree potential.
  Time summed over all CPUs for potential: real work        0.285 s, elapsed        0.285 s
  | RMS charge density error from multipole expansion :   0.251961E-01

  Integrating Hamiltonian matrix: batch-based integration.
  Time summed over all CPUs for integration: real work        0.500 s, elapsed        0.500 s

  Updating Kohn-Sham eigenvalues and eigenvectors using ELSI and the ELPA eigensolver.
  Finished Cholesky decomposition
  | Time :     0.000 s
  Finished transformation to standard eigenproblem
  | Time :     0.000 s
  Starting LAPACK eigensolver
  Finished solving standard eigenproblem
  | Time :     0.001 s
  Finished back-transformation of eigenvectors
  | Time :     0.000 s

  Obtaining occupation numbers and chemical potential using ELSI.
  | Chemical potential (Fermi level):    -2.81830494eV
  Highest occupied state (VBM) at     -5.62167821 eV
  | Occupation number:      2.00000000

  Lowest unoccupied state (CBM) at    -1.69742000 eV
  | Occupation number:      0.00000000

  Overall HOMO-LUMO gap:      3.92425821 eV.

  Total energy components:
  | Sum of eigenvalues            :        -180.58562626 Ha       -4913.98491144 eV
  | XC energy correction          :         -42.64312049 Ha       -1160.37834787 eV
  | XC potential correction       :          54.82461099 Ha        1491.85356979 eV
  | Free-atom electrostatic energy:        -146.85241308 Ha       -3996.05747703 eV
  | Hartree energy correction     :          -8.22391598 Ha        -223.78413991 eV
  | vdW energy correction         :           0.00000000 Ha           0.00000000 eV
  | Entropy correction            :           0.00000000 Ha           0.00000000 eV
  | ---------------------------
  | Total energy                  :        -323.48046482 Ha       -8802.35130645 eV
  | Total energy, T -> 0          :        -323.48046482 Ha       -8802.35130645 eV  <-- do not rely on this value for anything but (periodic) metals
  | Electronic free energy        :        -323.48046482 Ha       -8802.35130645 eV

  Derived energy quantities:
  | Kinetic energy                :         322.70425627 Ha        8781.22959703 eV
  | Electrostatic energy          :        -603.54160060 Ha      -16423.20255561 eV
  | Energy correction for multipole
  | error in Hartree potential    :           0.04173117 Ha           1.13556280 eV
  | Sum of eigenvalues per atom                           :        -377.99883934 eV
  | Total energy (T->0) per atom                          :        -677.10394665 eV  <-- do not rely on this value for anything but (periodic) metals
  | Electronic free energy per atom                       :        -677.10394665 eV

  Self-consistency convergence accuracy:
  | Change of charge density      :  0.2060E-01
  | Change of sum of eigenvalues  : -0.5727E+01 eV
  | Change of total energy        :  0.7982E-02 eV

  End self-consistency iteration #     5       :  max(cpu_time)    wall_clock(cpu1)
  | Time for this iteration                    :        1.200 s           1.201 s
  | Charge density update                      :        0.391 s           0.392 s
  | Density mixing                             :        0.011 s           0.012 s
  | Hartree multipole update                   :        0.009 s           0.009 s
  | Hartree multipole summation                :        0.285 s           0.285 s
  | Integration                                :        0.500 s           0.501 s
  | Solution of K.-S. eqns.                    :        0.002 s           0.002 s
  | Total energy evaluation                    :        0.000 s           0.000 s

  Partial memory accounting:
  | Current value for overall tracked memory usage on task 0  :           0.166 MB
  | Peak value for overall tracked memory usage on task 0     :           0.692 MB after allocating gradient_basis_wave
  | Largest tracked array allocation on task 0 so far         :           0.394 MB  when allocating gradient_basis_wave
  Note:  These values currently only include a subset of arrays which are explicitly tracked.
  The "true" memory usage will be greater.
------------------------------------------------------------

------------------------------------------------------------
          Begin self-consistency iteration #    6

  Date     :  20200801, Time     :  171523.489
------------------------------------------------------------
  Evaluating new KS density.
  Integration grid: deviation in total charge (<rho> - N_e) =  -5.684342E-14
  Pulay mixing of updated and previous charge densities.

  Evaluating partitioned Hartree potential by multipole expansion.
  | Analytical far-field extrapolation by fixed multipoles:
  | Hartree multipole sum: apparent total charge =  -0.425954E-03
  Summing up the Hartree potential.
  Time summed over all CPUs for potential: real work        0.281 s, elapsed        0.281 s
  | RMS charge density error from multipole expansion :   0.256798E-01

  Integrating Hamiltonian matrix: batch-based integration.
  Time summed over all CPUs for integration: real work        0.497 s, elapsed        0.497 s

  Updating Kohn-Sham eigenvalues and eigenvectors using ELSI and the ELPA eigensolver.
  Finished Cholesky decomposition
  | Time :     0.000 s
  Finished transformation to standard eigenproblem
  | Time :     0.000 s
  Starting LAPACK eigensolver
  Finished solving standard eigenproblem
  | Time :     0.001 s
  Finished back-transformation of eigenvectors
  | Time :     0.000 s

  Obtaining occupation numbers and chemical potential using ELSI.
  | Chemical potential (Fermi level):    -2.81075542eV
  Highest occupied state (VBM) at     -5.57747332 eV
  | Occupation number:      2.00000000

  Lowest unoccupied state (CBM) at    -1.70239058 eV
  | Occupation number:      0.00000000

  Overall HOMO-LUMO gap:      3.87508274 eV.

  Total energy components:
  | Sum of eigenvalues            :        -180.56599325 Ha       -4913.45067003 eV
  | XC energy correction          :         -42.64455940 Ha       -1160.41750262 eV
  | XC potential correction       :          54.82645650 Ha        1491.90378872 eV
  | Free-atom electrostatic energy:        -146.85241308 Ha       -3996.05747703 eV
  | Hartree energy correction     :          -8.24391498 Ha        -224.32834020 eV
  | vdW energy correction         :           0.00000000 Ha           0.00000000 eV
  | Entropy correction            :           0.00000000 Ha           0.00000000 eV
  | ---------------------------
  | Total energy                  :        -323.48042420 Ha       -8802.35020116 eV
  | Total energy, T -> 0          :        -323.48042420 Ha       -8802.35020116 eV  <-- do not rely on this value for anything but (periodic) metals
  | Electronic free energy        :        -323.48042420 Ha       -8802.35020116 eV

  Derived energy quantities:
  | Kinetic energy                :         322.63025780 Ha        8779.21599620 eV
  | Electrostatic energy          :        -603.46612260 Ha      -16421.14869474 eV
  | Energy correction for multipole
  | error in Hartree potential    :           0.04218609 Ha           1.14794197 eV
  | Sum of eigenvalues per atom                           :        -377.95774385 eV
  | Total energy (T->0) per atom                          :        -677.10386163 eV  <-- do not rely on this value for anything but (periodic) metals
  | Electronic free energy per atom                       :        -677.10386163 eV

  Self-consistency convergence accuracy:
  | Change of charge density      :  0.1079E-01
  | Change of sum of eigenvalues  :  0.5342E+00 eV
  | Change of total energy        :  0.1105E-02 eV

  End self-consistency iteration #     6       :  max(cpu_time)    wall_clock(cpu1)
  | Time for this iteration                    :        1.193 s           1.194 s
  | Charge density update                      :        0.391 s           0.392 s
  | Density mixing                             :        0.012 s           0.012 s
  | Hartree multipole update                   :        0.009 s           0.009 s
  | Hartree multipole summation                :        0.281 s           0.282 s
  | Integration                                :        0.497 s           0.497 s
  | Solution of K.-S. eqns.                    :        0.002 s           0.002 s
  | Total energy evaluation                    :        0.000 s           0.000 s

  Partial memory accounting:
  | Current value for overall tracked memory usage on task 0  :           0.166 MB
  | Peak value for overall tracked memory usage on task 0     :           0.692 MB after allocating gradient_basis_wave
  | Largest tracked array allocation on task 0 so far         :           0.394 MB  when allocating gradient_basis_wave
  Note:  These values currently only include a subset of arrays which are explicitly tracked.
  The "true" memory usage will be greater.
------------------------------------------------------------

------------------------------------------------------------
          Begin self-consistency iteration #    7

  Date     :  20200801, Time     :  171524.687
------------------------------------------------------------
  Evaluating new KS density.
  Integration grid: deviation in total charge (<rho> - N_e) =  -1.421085E-14
  Pulay mixing of updated and previous charge densities.

  Evaluating partitioned Hartree potential by multipole expansion.
  | Analytical far-field extrapolation by fixed multipoles:
  | Hartree multipole sum: apparent total charge =  -0.426752E-03
  Summing up the Hartree potential.
  Time summed over all CPUs for potential: real work        0.283 s, elapsed        0.283 s
  | RMS charge density error from multipole expansion :   0.257851E-01

  Integrating Hamiltonian matrix: batch-based integration.
  Time summed over all CPUs for integration: real work        0.503 s, elapsed        0.503 s

  Updating Kohn-Sham eigenvalues and eigenvectors using ELSI and the ELPA eigensolver.
  Finished Cholesky decomposition
  | Time :     0.000 s
  Finished transformation to standard eigenproblem
  | Time :     0.000 s
  Starting LAPACK eigensolver
  Finished solving standard eigenproblem
  | Time :     0.002 s
  Finished back-transformation of eigenvectors
  | Time :     0.000 s

[...]
  |   Hirshfeld dipole moment :      0.05851579
  |   Hirshfeld second moments:      0.00967533      -0.03041665      -0.01989430
  |                                 -0.03041665      -0.01340751       0.01236348
  |                                 -0.01989430       0.01236348      -0.01348645
  ----------------------------------------------------------------------
  | Atom    12: O
  |   Hirshfeld charge        :     -0.14625439
  |   Free atom volume        :     23.61338643
  |   Hirshfeld volume        :     20.54139175
  |   Hirshfeld dipole vector :      0.03070824       0.01635220       0.00602977
  |   Hirshfeld dipole moment :      0.03530933
  |   Hirshfeld second moments:      0.05716991      -0.02726019      -0.00735236
  |                                 -0.02726019       0.10033292       0.01827711
  |                                 -0.00735236       0.01827711       0.04616492
  ----------------------------------------------------------------------
  | Atom    13: H
  |   Hirshfeld charge        :      0.18933433
  |   Free atom volume        :      9.95071624
  |   Hirshfeld volume        :      5.96557856
  |   Hirshfeld dipole vector :      0.08022033      -0.09687275      -0.02612627
  |   Hirshfeld dipole moment :      0.12846094
  |   Hirshfeld second moments:      0.12106174       0.00033157      -0.00330884
  |                                  0.00033157       0.12858679       0.00263770
  |                                 -0.00330884       0.00263770       0.10975690
  ----------------------------------------------------------------------


  Total energy components:
  | Sum of eigenvalues            :        -180.56436680 Ha       -4913.40641206 eV
  | XC energy correction          :         -42.64138830 Ha       -1160.33121268 eV
  | XC potential correction       :          54.82244038 Ha        1491.79450439 eV
  | Free-atom electrostatic energy:        -146.85241308 Ha       -3996.05747703 eV
  | Hartree energy correction     :          -8.24467402 Ha        -224.34899476 eV
  | vdW energy correction         :          -0.00328423 Ha          -0.08936848 eV
  | Entropy correction            :           0.00000000 Ha           0.00000000 eV
  | ---------------------------
  | Total energy                  :        -323.48368605 Ha       -8802.43896062 eV
  | Total energy, T -> 0          :        -323.48368605 Ha       -8802.43896062 eV  <-- do not rely on this value for anything but (periodic) metals
  | Electronic free energy        :        -323.48368605 Ha       -8802.43896062 eV

  Derived energy quantities:
  | Kinetic energy                :         322.59298308 Ha        8778.20169953 eV
  | Electrostatic energy          :        -603.43199660 Ha      -16420.22007898 eV
  | Energy correction for multipole
  | error in Hartree potential    :           0.04221193 Ha           1.14864510 eV
  | Sum of eigenvalues per atom                           :        -377.95433939 eV
  | Total energy (T->0) per atom                          :        -677.11068928 eV  <-- do not rely on this value for anything but (periodic) metals
  | Electronic free energy per atom                       :        -677.11068928 eV

  atomic forces [eV/Ang]:
  -----------------------
  atom #    1
   Hellmann-Feynman              :  0.115082E+00  0.393742E+00  0.877936E+00
   Ionic forces                  :  0.000000E+00  0.000000E+00  0.000000E+00
   Multipole                     :  0.235676E+00  0.154512E+00 -0.252406E+00
   Pulay + GGA                   : -0.101204E+01 -0.308550E+00 -0.113974E+01
   Van der Waals                 :  0.269833E-02  0.785494E-02 -0.139145E-02
   ----------------------------------------------------------------
   Total forces(   1)            : -0.658583E+00  0.247559E+00 -0.515598E+00
  atom #    2
   Hellmann-Feynman              :  0.330475E+00 -0.487118E-01  0.217970E+00
   Ionic forces                  :  0.000000E+00  0.000000E+00  0.000000E+00
   Multipole                     :  0.167439E+00  0.146940E-01 -0.515416E-02
   Pulay + GGA                   : -0.122378E+00  0.208006E-01  0.333597E-01
   Van der Waals                 :  0.664642E-02 -0.510825E-02 -0.423698E-02
   ----------------------------------------------------------------
   Total forces(   2)            :  0.382183E+00 -0.183255E-01  0.241938E+00
  atom #    3
   Hellmann-Feynman              : -0.808721E+01  0.802146E+01 -0.228519E+00
   Ionic forces                  :  0.000000E+00  0.000000E+00  0.000000E+00
   Multipole                     : -0.126000E+00  0.206675E+00 -0.110729E+01
   Pulay + GGA                   :  0.841506E+01 -0.793174E+01  0.185573E+01
   Van der Waals                 :  0.353579E-02 -0.851435E-02 -0.661632E-02
   ----------------------------------------------------------------
   Total forces(   3)            :  0.205385E+00  0.287884E+00  0.513299E+00
  atom #    4
   Hellmann-Feynman              :  0.641853E-02 -0.196095E+00 -0.145212E+00
   Ionic forces                  :  0.000000E+00  0.000000E+00  0.000000E+00
   Multipole                     :  0.285763E-01 -0.132196E-02 -0.103161E+00
   Pulay + GGA                   : -0.195713E+00  0.414029E-01  0.119277E+00
   Van der Waals                 : -0.359231E-02 -0.161196E-02  0.598685E-02
   ----------------------------------------------------------------
   Total forces(   4)            : -0.164311E+00 -0.157626E+00 -0.123109E+00
  atom #    5
   Hellmann-Feynman              :  0.965382E-01 -0.216186E+00 -0.236259E+00
   Ionic forces                  :  0.000000E+00  0.000000E+00  0.000000E+00
   Multipole                     : -0.338425E-01 -0.751286E-01 -0.771831E-01
   Pulay + GGA                   : -0.103748E-01  0.218828E+00  0.795399E-01
   Van der Waals                 : -0.282368E-02  0.689530E-02 -0.984537E-03
   ----------------------------------------------------------------
   Total forces(   5)            :  0.494972E-01 -0.655913E-01 -0.234887E+00
  atom #    6
   Hellmann-Feynman              : -0.344418E-01 -0.470381E+00  0.577561E+00
   Ionic forces                  :  0.000000E+00  0.000000E+00  0.000000E+00
   Multipole                     : -0.924104E-01  0.620716E+00  0.235848E+00
   Pulay + GGA                   :  0.290343E+00 -0.446638E+00 -0.603041E+00
   Van der Waals                 : -0.333081E-02  0.521213E-02 -0.381586E-02
   ----------------------------------------------------------------
   Total forces(   6)            :  0.160159E+00 -0.291091E+00  0.206552E+00
  atom #    7
   Hellmann-Feynman              : -0.190966E+00 -0.573700E-01 -0.701102E-01
   Ionic forces                  :  0.000000E+00  0.000000E+00  0.000000E+00
   Multipole                     : -0.120978E+00  0.501038E-01  0.244667E-01
   Pulay + GGA                   :  0.122954E+00  0.362500E-02 -0.278606E-01
   Van der Waals                 : -0.120880E-02  0.126390E-02  0.281937E-02
   ----------------------------------------------------------------
   Total forces(   7)            : -0.190198E+00 -0.237734E-02 -0.706847E-01
  atom #    8
   Hellmann-Feynman              :  0.976856E-01 -0.258934E-01  0.176990E+00
   Ionic forces                  :  0.000000E+00  0.000000E+00  0.000000E+00
   Multipole                     :  0.143886E-01  0.597390E-01  0.122337E+00
   Pulay + GGA                   : -0.409280E-01 -0.328688E-01 -0.819596E-01
   Van der Waals                 : -0.250761E-02  0.115558E-01  0.162991E-02
   ----------------------------------------------------------------
   Total forces(   8)            :  0.686386E-01  0.125325E-01  0.218997E+00
  atom #    9
   Hellmann-Feynman              :  0.971497E-01  0.295746E-01 -0.178005E+00
   Ionic forces                  :  0.000000E+00  0.000000E+00  0.000000E+00
   Multipole                     :  0.142381E-01  0.125546E+00 -0.144367E-01
   Pulay + GGA                   : -0.620535E-01 -0.889849E-01  0.377473E-01
   Van der Waals                 : -0.171373E-02  0.220105E-02  0.265885E-02
   ----------------------------------------------------------------
   Total forces(   9)            :  0.476206E-01  0.683365E-01 -0.152035E+00
  atom #   10
   Hellmann-Feynman              :  0.342240E+01  0.570063E+01  0.190642E+01
   Ionic forces                  :  0.000000E+00  0.000000E+00  0.000000E+00
   Multipole                     :  0.601602E-01 -0.441495E-01  0.255405E+00
   Pulay + GGA                   : -0.226787E+01 -0.273655E+01 -0.150762E+00
   Van der Waals                 :  0.353321E-02 -0.116776E-01 -0.110703E-02
   ----------------------------------------------------------------
   Total forces(  10)            :  0.121822E+01  0.290826E+01  0.200996E+01
  atom #   11
   Hellmann-Feynman              :  0.403565E+01 -0.216153E+01  0.138708E+02
   Ionic forces                  :  0.000000E+00  0.000000E+00  0.000000E+00
   Multipole                     :  0.108663E+00 -0.711956E+00  0.751255E+00
   Pulay + GGA                   : -0.316239E+01  0.343894E+01 -0.135719E+02
   Van der Waals                 : -0.348038E-02 -0.112353E-01  0.197547E-02
   ----------------------------------------------------------------
   Total forces(  11)            :  0.978442E+00  0.554213E+00  0.105216E+01
  atom #   12
   Hellmann-Feynman              : -0.135399E+02 -0.645953E-01 -0.867642E+01
   Ionic forces                  :  0.000000E+00  0.000000E+00  0.000000E+00
   Multipole                     : -0.105140E+01 -0.112678E+01 -0.334499E+00
   Pulay + GGA                   :  0.131728E+02 -0.120935E+01  0.594021E+01
   Van der Waals                 :  0.160581E-02  0.716211E-02  0.323159E-02
   ----------------------------------------------------------------
   Total forces(  12)            : -0.141695E+01 -0.239356E+01 -0.306747E+01
  atom #   13
   Hellmann-Feynman              : -0.432332E+00 -0.137426E+01 -0.103178E+00
   Ionic forces                  :  0.000000E+00  0.000000E+00  0.000000E+00
   Multipole                     :  0.441021E-01 -0.480568E-01 -0.334279E-01
   Pulay + GGA                   : -0.290579E+00  0.270822E+00  0.539931E-01
   Van der Waals                 :  0.637768E-03 -0.399768E-02 -0.149855E-03
   ----------------------------------------------------------------
   Total forces(  13)            : -0.678171E+00 -0.115549E+01 -0.827622E-01

  Timings for VdW correction (Tkatchenko-Scheffler 2009 or later):
  | CPU time:        0.090 s, Wall clock time:        0.091 s.
  Removing unitary transformations (pure translations, rotations) from forces on atoms.
  Atomic forces before filtering:
  | Net force on center of mass :   0.193106E-02 -0.528220E-02 -0.364135E-02 eV/A
  | Net torque on center of mass:  -0.520501E-02  0.408071E-02 -0.662648E-03 eV
  Atomic forces after filtering:
  | Net force on center of mass :  -0.178406E-15 -0.178406E-15 -0.423715E-15 eV/A
  | Net torque on center of mass:   0.114470E-14 -0.525147E-15  0.377634E-15 eV

  Energy and forces in a compact form:
  | Total energy uncorrected      :         -0.880243896061568E+04 eV
  | Total energy corrected        :         -0.880243896061568E+04 eV  <-- do not rely on this value for anything but (periodic) metals
  | Electronic free energy        :         -0.880243896061568E+04 eV
  Total atomic forces (unitary forces cleaned) [eV/Ang]:
  |   1         -0.658717818082453E+00          0.247978410494228E+00         -0.515235143009861E+00
  |   2          0.382048186902885E+00         -0.178972080012588E-01          0.242494165736740E+00
  |   3          0.205499822967892E+00          0.288460437880141E+00          0.513576746296913E+00
  |   4         -0.164087940654132E+00         -0.156971686622011E+00         -0.122671954422327E+00
  |   5          0.496553198802673E-01         -0.649953931450993E-01         -0.234787645950412E+00
  |   6          0.159884600879648E+00         -0.290760017338162E+00          0.206971366549626E+00
  |   7         -0.190476292758673E+00         -0.205710535775158E-02         -0.704557603554464E-01
  |   8          0.681810872265623E-01          0.127489176914301E-01          0.219481693819456E+00
  |   9          0.474273998017991E-01          0.687286638993067E-01         -0.151448836550337E+00
  |  10          0.121796528561268E+01          0.290858830947491E+01          0.201010328574712E+01
  |  11          0.977987230812089E+00          0.554415102071100E+00          0.105232971402075E+01
  |  12         -0.141708292058481E+01         -0.239316247886025E+01         -0.306755202425835E+01
  |  13         -0.678283962003757E+00         -0.115507595218658E+01         -0.828056076238730E-01

  ------------------------------------ 
  Start decomposition of the XC Energy 
  ------------------------------------ 
  X and C from original XC functional choice 
  Hartree-Fock Energy :          0.000000000 Ha              0.000000000 eV
  X Energy            :        -41.040485715 Ha          -1116.768436860 eV
  C Energy            :         -1.600902586 Ha            -43.562775816 eV
  Total XC Energy     :        -42.641388301 Ha          -1160.331212675 eV
  ------------------------------------ 
  LDA X and C from self-consistent density 
  X Energy LDA        :        -37.259674460 Ha          -1013.887328063 eV
  C Energy LDA        :         -3.138783319 Ha            -85.410639752 eV
  ------------------------------------ 
  End decomposition of the XC Energy 
  ------------------------------------ 

------------------------------------------------------------

------------------------------------------------------------------------------
  Final output of selected total energy values:

  The following output summarizes some interesting total energy values
  at the end of a run (AFTER all relaxation, molecular dynamics, etc.).

  | Total energy of the DFT / Hartree-Fock s.c.f. calculation      :          -8802.438960616 eV
  | Final zero-broadening corrected energy (caution - metals only) :          -8802.438960616 eV
  | For reference only, the value of 1 Hartree used in FHI-aims is :             27.211384500 eV

  Before relying on these values, please be sure to understand exactly which
  total energy value is referred to by a given number. Different objects may
  all carry the same name 'total energy'. Definitions:

  Total energy of the DFT / Hartree-Fock s.c.f. calculation:
  | Note that this energy does not include ANY quantities calculated after the
  | s.c.f. cycle, in particular not ANY RPA, MP2, etc. many-body perturbation terms.

  Final zero-broadening corrected energy:
  | For metallic systems only, a broadening of the occupation numbers at the Fermi
  | level can be extrapolated back to zero broadening by an electron-gas inspired
  | formula. For all systems that are not real metals, this value can be
  | meaningless and should be avoided.

------------------------------------------------------------------------------
  Methods described in the following list of references were used in this FHI-aims run.
  If you publish the results, please make sure to cite these reference if they apply.
  FHI-aims is an academic code, and for our developers (often, Ph.D. students
  and postdocs), scientific credit in the community is essential.
  Thank you for helping us!

  For any use of FHI-aims, please cite:

    Volker Blum, Ralf Gehrke, Felix Hanke, Paula Havu, Ville Havu,
    Xinguo Ren, Karsten Reuter, and Matthias Scheffler
    'Ab initio molecular simulations with numeric atom-centered orbitals'
    Computer Physics Communications 180, 2175-2196 (2009)
    http://dx.doi.org/10.1016/j.cpc.2009.06.022


  The scalable eigensolver library ELPA was used in your run.
  ELPA is essential especially for large systems on hundreds or thousands of CPUs.
  For ELPA, please cite:

    Andreas Marek, Volker Blum, Rainer Johanni, Ville Havu, Bruno Lang,
    Thomas Auckenthaler, Alexander Heinecke, Hans-Joachim Bungartz, and Hermann Lederer,
    'The ELPA Library - Scalable Parallel Eigenvalue Solutions
    for Electronic Structure Theory and Computational Science'
    The Journal of Physics: Condensed Matter 26, 213201 (2014).
    http://dx.doi.org/10.1088/0953-8984/26/21/213201


  The ELSI infrastructure was used in your run to solve the Kohn-Sham electronic structure.
  Please check out http://elsi-interchange.org to learn more.
  If scalability is important for your project, please acknowledge ELSI by citing:

    V. W-z. Yu, F. Corsetti, A. Garcia, W. P. Huhn, M. Jacquelin, W. Jia,
    B. Lange, L. Lin, J. Lu, W. Mi, A. Seifitokaldani, A. Vazquez-Mayagoitia,
    C. Yang, H. Yang, and V. Blum
    'ELSI: A unified software interface for Kohn-Sham electronic structure solvers'
    Computer Physics Communications 222, 267-285 (2018).
    http://dx.doi.org/10.1016/j.cpc.2017.09.007


  For the real-space grid partitioning and parallelization used in this calculation, please cite:

    Ville Havu, Volker Blum, Paula Havu, and Matthias Scheffler,
    'Efficient O(N) integration for all-electron electronic structure calculation'
    'using numerically tabulated basis functions'
    Journal of Computational Physics 228, 8367-8379 (2009).
    http://dx.doi.org/10.1016/j.jcp.2009.08.008

  Of course, there are many other important community references, e.g., those cited in the
  above references. Our list is limited to references that describe implementations in the
  FHI-aims code. The reason is purely practical (length of this list) - please credit others as well.

------------------------------------------------------------
          Leaving FHI-aims.
          Date     :  20200801, Time     :  171539.120

          Computational steps:
          | Number of self-consistency cycles          :           16
          | Number of SCF (re)initializations          :            1

          Detailed time accounting                     :  max(cpu_time)    wall_clock(cpu1)
          | Total time                                 :       22.882 s          22.956 s
          | Preparation time                           :        0.151 s           0.153 s
          | Boundary condition initalization           :        0.000 s           0.000 s
          | Grid partitioning                          :        0.113 s           0.113 s
          | Preloading free-atom quantities on grid    :        0.002 s           0.002 s
          | Free-atom superposition energy             :        0.085 s           0.085 s
          | Total time for integrations                :        8.703 s           8.706 s
          | Total time for solution of K.-S. equations :        0.037 s           0.038 s
          | Total time for density & force components  :        7.214 s           7.231 s
          | Total time for mixing                      :        0.219 s           0.219 s
          | Total time for Hartree multipole update    :        0.141 s           0.141 s
          | Total time for Hartree multipole sum       :        5.817 s           5.830 s
          | Total time for total energy evaluation     :        0.003 s           0.003 s
          | Total time for vdW correction              :        0.090 s           0.091 s

          Partial memory accounting:
          | Residual value for overall tracked memory usage across tasks :           0.000 MB (should be 0.000 MB)
          | Peak values for overall tracked memory usage (after allocating hessian_basis_wave):
          |   Minimum:        1.612 MB (on task 1)
          |   Maximum:        1.612 MB (on task 1)
          |   Average:        1.612 MB
          | Largest tracked array allocation (hessian_basis_wave):
          |   Minimum:        0.788 MB (on task 1)
          |   Maximum:        0.788 MB (on task 1)
          |   Average:        0.788 MB
          Note:  These values currently only include a subset of arrays which are explicitly tracked.
          The "true" memory usage will be greater.

          Have a nice day.
------------------------------------------------------------
