  MPI-parallelism will be employed.
------------------------------------------------------------
          Invoking FHI-aims ...
          Version 171221_1
          Compiled on 2019/09/09 at 14:39:39 on host puhti-login2.bullx.

          When using FHI-aims, please cite the following reference:

          Volker Blum, Ralf Gehrke, Felix Hanke, Paula Havu,
          Ville Havu, Xinguo Ren, Karsten Reuter, and Matthias Scheffler,
          'Ab Initio Molecular Simulations with Numeric Atom-Centered Orbitals',
          Computer Physics Communications 180, 2175-2196 (2009)

          For any questions about FHI-aims, please visit the aimsclub website
          with its forums and wiki. Contributions to both the forums and the
          wiki are warmly encouraged - they are for you, and everyone is welcome there.

------------------------------------------------------------



  Date     :  20200710, Time     :  144759.805
  Time zero on CPU 1             :   0.130950000000000E-01  s.
  Internal wall clock time zero  :           363624479.805  s.

  FHI-aims created a unique identifier for this run for later identification
  aims_uuid : 91D1588B-2B06-498E-AD3A-4C62C288D6AE

  Using        1 parallel tasks.
  Task        0 on host r18c43.bullx reporting.

  Performing system and environment tests:
  | Environment variable OMP_NUM_THREADS correctly set to 1.
  | Stacksize not measured: no C compiler
  | Checking for scalapack...
  | Testing pdtran()...
  | All pdtran() tests passed.

  Obtaining array dimensions for all initial allocations:
  
  -----------------------------------------------------------------------
  Parsing control.in (first pass over file, find array dimensions only).
  The contents of control.in will be repeated verbatim below
  unless switched off by setting 'verbatim_writeout .false.' .
  in the first line of control.in .
  -----------------------------------------------------------------------
  
  #########################################################################################
  #
  #  Volker Blum, FHI 2009 : Test run input file control.in for simple H2O
  #
  #########################################################################################
  #
  #  Physical model
  #
    xc                 pbe
    vdw_correction_hirshfeld
    spin               none
    relativistic       none
    charge             0.
  #
  #  SCF convergence
  #
    occupation_type    gaussian 0.01
    mixer              pulay
      n_max_pulay        10
      charge_mix_param   0.2
    sc_accuracy_rho    1E-5
    sc_accuracy_eev    1E-3
    sc_accuracy_etot   1E-6
    sc_accuracy_forces 1E-4
    sc_iter_limit      100
  #
  #  Relaxation
  #
  #  relax_geometry   bfgs 1.e-3
  #
  ################################################################################
  #
  #  FHI-aims code project
  #  VB, Fritz-Haber Institut, 2009
  #
  #  Suggested "light" defaults for H atom (to be pasted into control.in file)
  #  Be sure to double-check any results obtained with these settings for post-processing,
  #  e.g., with the "tight" defaults and larger basis sets.
  #
  ################################################################################
    species        H
  #     global species definitions
      nucleus             1
      mass                1.00794
  #
      l_hartree           4
  #
      cut_pot             3.5  1.5  1.0
      basis_dep_cutoff    1e-4
  #
      radial_base         24 5.0
      radial_multiplier   1
      angular_grids       specified
        division   0.2421   50
        division   0.3822  110
        division   0.4799  194
        division   0.5341  302
  #      division   0.5626  434
  #      division   0.5922  590
  #      division   0.6542  770
  #      division   0.6868 1202
  #      outer_grid  770
        outer_grid  302
  ################################################################################
  #
  #  Definition of "minimal" basis
  #
  ################################################################################
  #     valence basis states
      valence      1  s   1.
  #     ion occupancy
      ion_occ      1  s   0.5
  ################################################################################
  #
  #  Suggested additional basis functions. For production calculations,
  #  uncomment them one after another (the most important basis functions are
  #  listed first).
  #
  #  Basis constructed for dimers: 0.5 A, 0.7 A, 1.0 A, 1.5 A, 2.5 A
  #
  ################################################################################
  #  "First tier" - improvements: -1014.90 meV to -62.69 meV
       hydro 2 s 2.1
       hydro 2 p 3.5
  #  "Second tier" - improvements: -12.89 meV to -1.83 meV
  #     hydro 1 s 0.85
  #     hydro 2 p 3.7
  #     hydro 2 s 1.2
  #     hydro 3 d 7
  #  "Third tier" - improvements: -0.25 meV to -0.12 meV
  #     hydro 4 f 11.2
  #     hydro 3 p 4.8
  #     hydro 4 d 9
  #     hydro 3 s 3.2
  ################################################################################
  #
  #  FHI-aims code project
  #  VB, Fritz-Haber Institut, 2009
  #
  #  Suggested "light" defaults for C atom (to be pasted into control.in file)
  #  Be sure to double-check any results obtained with these settings for post-processing,
  #  e.g., with the "tight" defaults and larger basis sets.
  #
  ################################################################################
    species        C
  #     global species definitions
      nucleus             6
      mass                12.0107
  #
      l_hartree           4
  #
      cut_pot             3.5  1.5  1.0
      basis_dep_cutoff    1e-4
  #
      radial_base         34 5.0
      radial_multiplier   1
      angular_grids specified
        division   0.3326   50
        division   0.5710  110
        division   0.7727  194
        division   0.8772  302
  #      division   0.9334  434
  #      division   0.9625  590
  #      division   0.9924  770
  #      division   1.0230  974
  #      division   1.4589 1202
  #     outer_grid  974
       outer_grid 302
  ################################################################################
  #
  #  Definition of "minimal" basis
  #
  ################################################################################
  #     valence basis states
      valence      2  s   2.
      valence      2  p   2.
  #     ion occupancy
      ion_occ      2  s   1.
      ion_occ      2  p   1.
  ################################################################################
  #
  #  Suggested additional basis functions. For production calculations,
  #  uncomment them one after another (the most important basis functions are
  #  listed first).
  #
  #  Constructed for dimers: 1.0 A, 1.25 A, 1.5 A, 2.0 A, 3.0 A
  #
  ################################################################################
  #  "First tier" - improvements: -1214.57 meV to -155.61 meV
       hydro 2 p 1.7
       hydro 3 d 6
       hydro 2 s 4.9
  #  "Second tier" - improvements: -67.75 meV to -5.23 meV
  #     hydro 4 f 9.8
  #     hydro 3 p 5.2
  #     hydro 3 s 4.3
  #     hydro 5 g 14.4
  #     hydro 3 d 6.2
  #  "Third tier" - improvements: -2.43 meV to -0.60 meV
  #     hydro 2 p 5.6
  #     hydro 2 s 1.4
  #     hydro 3 d 4.9
  #     hydro 4 f 11.2
  #  "Fourth tier" - improvements: -0.39 meV to -0.18 meV
  #     hydro 2 p 2.1
  #     hydro 5 g 16.4
  #     hydro 4 d 13.2
  #     hydro 3 s 13.6
  #     hydro 4 f 17.6
  #  Further basis functions - improvements: -0.08 meV and below
  #     hydro 3 s 2
  #     hydro 3 p 6
  #     hydro 4 d 20
  ################################################################################
  #
  #  FHI-aims code project
  #  VB, Fritz-Haber Institut, 2009
  #
  #  Suggested "light" defaults for N atom (to be pasted into control.in file)
  #  Be sure to double-check any results obtained with these settings for post-processing,
  #  e.g., with the "tight" defaults and larger basis sets.
  #
  ################################################################################
    species        N
  #     global species definitions
      nucleus             7
      mass                14.0067
  #
      l_hartree           4
  #
      cut_pot             3.5  1.5  1.0
      basis_dep_cutoff    1e-4
  #
      radial_base         35 5.0
      radial_multiplier   1
      angular_grids       specified
        division   0.2599   50
        division   0.4601  110
        division   0.5885  194
        division   0.6503  302
  #      division   0.6939  434
  #      division   0.7396  590
  #      division   0.7632  770
  #      division   0.8122  974
  #      division   1.1604 1202
  #      outer_grid  974
        outer_grid  302
  ################################################################################
  #
  #  Definition of "minimal" basis
  #
  ################################################################################
  #     valence basis states
      valence      2  s   2.
      valence      2  p   3.
  #     ion occupancy
      ion_occ      2  s   1.
      ion_occ      2  p   2.
  ################################################################################
  #
  #  Suggested additional basis functions. For production calculations,
  #  uncomment them one after another (the most important basis functions are
  #  listed first).
  #
  #  Constructed for dimers: 1.0 A, 1.1 A, 1.5 A, 2.0 A, 3.0 A
  #
  ################################################################################
  #  "First tier" - improvements: -1193.42 meV to -220.60 meV
       hydro 2 p 1.8
       hydro 3 d 6.8
       hydro 3 s 5.8
  #  "Second tier" - improvements: -80.21 meV to -6.86 meV
  #     hydro 4 f 10.8
  #     hydro 3 p 5.8
  #     hydro 1 s 0.8
  #     hydro 5 g 16
  #     hydro 3 d 4.9
  #  "Third tier" - improvements: -4.29 meV to -0.53 meV
  #     hydro 3 s 16
  #     ionic 2 p auto
  #     hydro 3 d 6.6
  #     hydro 4 f 11.6
  #  "Fourth tier" - improvements: -0.75 meV to -0.25 meV
  #     hydro 2 p 4.5
  #     hydro 2 s 2.4
  #     hydro 5 g 14.4
  #     hydro 4 d 14.4
  #     hydro 4 f 16.8
  # Further basis functions - -0.21 meV and below
  #     hydro 3 p 14.8
  #     hydro 3 s 4.4
  #     hydro 3 d 19.6
  #     hydro 5 g 12.8
  ################################################################################
  #
  #  FHI-aims code project
  #  VB, Fritz-Haber Institut, 2009
  #
  #  Suggested "light" defaults for O atom (to be pasted into control.in file)
  #  Be sure to double-check any results obtained with these settings for post-processing,
  #  e.g., with the "tight" defaults and larger basis sets.
  #
  ################################################################################
    species        O
  #     global species definitions
      nucleus             8
      mass                15.9994
  #
      l_hartree           4
  #
      cut_pot             3.5  1.5  1.0
      basis_dep_cutoff    1e-4
  #
      radial_base         36 5.0
      radial_multiplier   1
       angular_grids specified
        division   0.2659   50
        division   0.4451  110
        division   0.6052  194
        division   0.7543  302
  #      division   0.8014  434
  #      division   0.8507  590
  #      division   0.8762  770
  #      division   0.9023  974
  #      division   1.2339 1202
  #      outer_grid 974
        outer_grid 302
  ################################################################################
  #
  #  Definition of "minimal" basis
  #
  ################################################################################
  #     valence basis states
      valence      2  s   2.
      valence      2  p   4.
  #     ion occupancy
      ion_occ      2  s   1.
      ion_occ      2  p   3.
  ################################################################################
  #
  #  Suggested additional basis functions. For production calculations,
  #  uncomment them one after another (the most important basis functions are
  #  listed first).
  #
  #  Constructed for dimers: 1.0 A, 1.208 A, 1.5 A, 2.0 A, 3.0 A
  #
  ################################################################################
  #  "First tier" - improvements: -699.05 meV to -159.38 meV
       hydro 2 p 1.8
       hydro 3 d 7.6
       hydro 3 s 6.4
  #  "Second tier" - improvements: -49.91 meV to -5.39 meV
  #     hydro 4 f 11.6
  #     hydro 3 p 6.2
  #     hydro 3 d 5.6
  #     hydro 5 g 17.6
  #     hydro 1 s 0.75
  #  "Third tier" - improvements: -2.83 meV to -0.50 meV
  #     ionic 2 p auto
  #     hydro 4 f 10.8
  #     hydro 4 d 4.7
  #     hydro 2 s 6.8
  #  "Fourth tier" - improvements: -0.40 meV to -0.12 meV
  #     hydro 3 p 5
  #     hydro 3 s 3.3
  #     hydro 5 g 15.6
  #     hydro 4 f 17.6
  #     hydro 4 d 14
  # Further basis functions - -0.08 meV and below
  #     hydro 3 s 2.1
  #     hydro 4 d 11.6
  #     hydro 3 p 16
  #     hydro 2 s 17.2
  
  -----------------------------------------------------------------------
  Completed first pass over input file control.in .
  -----------------------------------------------------------------------
  
  
  -----------------------------------------------------------------------
  Parsing geometry.in (first pass over file, find array dimensions only).
  The contents of geometry.in will be repeated verbatim below
  unless switched off by setting 'verbatim_writeout .false.' .
  in the first line of geometry.in .
  -----------------------------------------------------------------------
  
  atom  0.00000 0.00000 0.00000 C
  atom  1.09300 0.00000 0.00000 H
  atom  -0.47961 0.00000 -1.41207 N
  atom  0.12300 0.61325 -1.96218 H
  atom  -0.43620 -0.95115 -1.77201 H
  atom  -0.49584 1.26211 0.72868 C
  atom  -1.58789 1.28919 0.74431 H
  atom  -0.13407 1.27425 1.75947 H
  atom  -0.13407 2.16087 0.22380 H
  atom  -0.39425 -1.28861 0.74398 C
  atom  -0.10189 -1.56493 1.88303 O
  atom  -1.10210 -2.13717 0.06896 O
  atom  -1.18209 -1.63018 -0.75659 H
  
  -----------------------------------------------------------------------
  Completed first pass over input file geometry.in .
  -----------------------------------------------------------------------
  

  Basic array size parameters:
  | Number of species                 :        4
  | Number of atoms                   :       13
  | Max. basis fn. angular momentum   :        2
  | Max. atomic/ionic basis occupied n:        2
  | Max. number of basis fn. types    :        2
  | Max. radial fns per species/type  :        3
  | Max. logarithmic grid size        :     1301
  | Max. radial integration grid size :       36
  | Max. angular integration grid size:      302
  | Max. angular grid division number :        8
  | Radial grid for Hartree potential :     1301
  | Number of spin channels           :        1

------------------------------------------------------------
          Reading file control.in.
------------------------------------------------------------
  XC: Using PBE gradient-corrected functionals.
  Spin treatment: No spin polarisation.
  Non-relativistic treatment of kinetic energy.
  Charge =   0.000000E+00: Neutral system requested explicitly.
  Occupation type: Gaussian broadening, width =   0.100000E-01 eV.
  Using pulay charge density mixing.
  Pulay mixing - number of memorized iterations:   10
  Charge density mixing - mixing parameter:     0.2000
  Convergence accuracy of self-consistent charge density:  0.1000E-04
  Convergence accuracy of sum of eigenvalues:  0.1000E-02
  Convergence accuracy of total energy:  0.1000E-05
  Convergence accuracy of forces:  0.1000E-03
  Maximum number of s.-c. iterations  :   100
 
  Reading configuration options for species H                   .
  | Found nuclear charge :   1.0000
  | Found atomic mass :    1.00794000000000      amu
  | Found l_max for Hartree potential  :   4
  | Found cutoff potl. onset [A], width [A], scale factor :    3.50000    1.50000    1.00000
  | Threshold for basis-dependent cutoff potential is   0.100000E-03
  | Found data for basic radial integration grid :    24 points, outermost radius =    5.000 A
  | Found multiplier for basic radial grid :   1
  | Found angular grid specification: user-specified.
  | Specified grid contains     5 separate shells.
  | Check grid settings after all constraints further below.
  | Found free-atom valence shell :  1 s   1.000
  | No ionic wave fns used. Skipping ion_occ.
  | Found hydrogenic basis function :  2 s   2.100
  | Found hydrogenic basis function :  2 p   3.500
  Species H                   : Missing cutoff potential type.
  Defaulting to exp(1/x)/(1-x)^2 type cutoff potential.
  Species H : No 'logarithmic' tag. Using default grid for free atom:
  | Default logarithmic grid data [bohr] : 0.1000E-03 0.1000E+03 0.1012E+01
  Species H : On-site basis accuracy parameter (for Gram-Schmidt orthonormalisation) not specified.
  Using default value basis_acc =  0.1000000E-03.
  Species H                   : Using default innermost maximum threshold i_radial=  2 for radial functions.
  Species H                   : Default cutoff onset for free atom density etc. : 0.35000000E+01 AA.
  Species H                   : Basic radial grid will be enhanced according to radial_multiplier =   1, to contain    24 grid points.
 
  Reading configuration options for species C                   .
  | Found nuclear charge :   6.0000
  | Found atomic mass :    12.0107000000000      amu
  | Found l_max for Hartree potential  :   4
  | Found cutoff potl. onset [A], width [A], scale factor :    3.50000    1.50000    1.00000
  | Threshold for basis-dependent cutoff potential is   0.100000E-03
  | Found data for basic radial integration grid :    34 points, outermost radius =    5.000 A
  | Found multiplier for basic radial grid :   1
  | Found angular grid specification: user-specified.
  | Specified grid contains     5 separate shells.
  | Check grid settings after all constraints further below.
  | Found free-atom valence shell :  2 s   2.000
  | Found free-atom valence shell :  2 p   2.000
  | No ionic wave fns used. Skipping ion_occ.
  | No ionic wave fns used. Skipping ion_occ.
  | Found hydrogenic basis function :  2 p   1.700
  | Found hydrogenic basis function :  3 d   6.000
  | Found hydrogenic basis function :  2 s   4.900
  Species C                   : Missing cutoff potential type.
  Defaulting to exp(1/x)/(1-x)^2 type cutoff potential.
  Species C : No 'logarithmic' tag. Using default grid for free atom:
  | Default logarithmic grid data [bohr] : 0.1000E-03 0.1000E+03 0.1012E+01
  Species C : On-site basis accuracy parameter (for Gram-Schmidt orthonormalisation) not specified.
  Using default value basis_acc =  0.1000000E-03.
  Species C                   : Using default innermost maximum threshold i_radial=  2 for radial functions.
  Species C                   : Default cutoff onset for free atom density etc. : 0.35000000E+01 AA.
  Species C                   : Basic radial grid will be enhanced according to radial_multiplier =   1, to contain    34 grid points.
 
  Reading configuration options for species N                   .
  | Found nuclear charge :   7.0000
  | Found atomic mass :    14.0067000000000      amu
  | Found l_max for Hartree potential  :   4
  | Found cutoff potl. onset [A], width [A], scale factor :    3.50000    1.50000    1.00000
  | Threshold for basis-dependent cutoff potential is   0.100000E-03
  | Found data for basic radial integration grid :    35 points, outermost radius =    5.000 A
  | Found multiplier for basic radial grid :   1
  | Found angular grid specification: user-specified.
  | Specified grid contains     5 separate shells.
  | Check grid settings after all constraints further below.
  | Found free-atom valence shell :  2 s   2.000
  | Found free-atom valence shell :  2 p   3.000
  | No ionic wave fns used. Skipping ion_occ.
  | No ionic wave fns used. Skipping ion_occ.
  | Found hydrogenic basis function :  2 p   1.800
  | Found hydrogenic basis function :  3 d   6.800
  | Found hydrogenic basis function :  3 s   5.800
  Species N                   : Missing cutoff potential type.
  Defaulting to exp(1/x)/(1-x)^2 type cutoff potential.
  Species N : No 'logarithmic' tag. Using default grid for free atom:
  | Default logarithmic grid data [bohr] : 0.1000E-03 0.1000E+03 0.1012E+01
  Species N : On-site basis accuracy parameter (for Gram-Schmidt orthonormalisation) not specified.
  Using default value basis_acc =  0.1000000E-03.
  Species N                   : Using default innermost maximum threshold i_radial=  2 for radial functions.
  Species N                   : Default cutoff onset for free atom density etc. : 0.35000000E+01 AA.
  Species N                   : Basic radial grid will be enhanced according to radial_multiplier =   1, to contain    35 grid points.
 
  Reading configuration options for species O                   .
  | Found nuclear charge :   8.0000
  | Found atomic mass :    15.9994000000000      amu
  | Found l_max for Hartree potential  :   4
  | Found cutoff potl. onset [A], width [A], scale factor :    3.50000    1.50000    1.00000
  | Threshold for basis-dependent cutoff potential is   0.100000E-03
  | Found data for basic radial integration grid :    36 points, outermost radius =    5.000 A
  | Found multiplier for basic radial grid :   1
  | Found angular grid specification: user-specified.
  | Specified grid contains     5 separate shells.
  | Check grid settings after all constraints further below.
  | Found free-atom valence shell :  2 s   2.000
  | Found free-atom valence shell :  2 p   4.000
  | No ionic wave fns used. Skipping ion_occ.
  | No ionic wave fns used. Skipping ion_occ.
  | Found hydrogenic basis function :  2 p   1.800
  | Found hydrogenic basis function :  3 d   7.600
  | Found hydrogenic basis function :  3 s   6.400
  Species O                   : Missing cutoff potential type.
  Defaulting to exp(1/x)/(1-x)^2 type cutoff potential.
  Species O : No 'logarithmic' tag. Using default grid for free atom:
  | Default logarithmic grid data [bohr] : 0.1000E-03 0.1000E+03 0.1012E+01
  Species O : On-site basis accuracy parameter (for Gram-Schmidt orthonormalisation) not specified.
  Using default value basis_acc =  0.1000000E-03.
  Species O                   : Using default innermost maximum threshold i_radial=  2 for radial functions.
  Species O                   : Default cutoff onset for free atom density etc. : 0.35000000E+01 AA.
  Species O                   : Basic radial grid will be enhanced according to radial_multiplier =   1, to contain    36 grid points.
 
  Finished reading input file 'control.in'. Consistency checks are next.
 
  MPI_IN_PLACE appears to work with this MPI implementation.
  | Keeping use_mpi_in_place .true. (see manual).
  Target number of points in a grid batch is not set. Defaulting to  100
  Method for grid partitioning is not set. Defaulting to parallel hash+maxmin partitioning.
  Batch size limit is not set. Defaulting to    200
  By default, will store active basis functions for each batch.
  If in need of memory, prune_basis_once .false. can be used to disable this option.
  communication_type for Hartree potential was not specified.
  Defaulting to calc_hartree .
  Pulay mixer: Number of initial linear mixing iterations not set.
  Defaulting to    0 iterations.
  Work space size for distributed Hartree potential not set.
  Defaulting to   0.200000E+03 MB.
  Algorithm-dependent basis array size parameters:
  | n_max_pulay                         :       10
  Presetting      1001 iterations before the initial mixing cycle
  is restarted anyway using the sc_init_iter criterion / keyword.
  Presetting a factor      1.000 between actual scf density residual
  and density convergence criterion sc_accuracy_rho below which sc_init_iter
  takes no effect.
  Geometry relaxation not requested: no relaxation will be performed.
  Handling of forces: Unphysical translation and rotation will be removed from forces.
  No accuracy limit for integral partition fn. given. Defaulting to  0.1000E-14.
  No threshold value for u(r) in integrations given. Defaulting to  0.1000E-05.
  No accuracy for occupation numbers given. Defaulting to  0.1000E-12.
  No threshold value for occupation numbers given. Defaulting to  0.0000E+00.
  No accuracy for fermi level given. Defaulting to  0.1000E-19.
  Maximum # of iterations to find E_F not set. Defaulting to  200.
  Preferred method for the eigenvalue solver ('KS_method') not specified in 'control.in'.
  Defaulting to serial version, 'lapack_fast'.
  Will not use alltoall communication since running on < 1024 CPUs.
  Threshold for basis singularities not set.
  Default threshold for basis singularities:  0.1000E-04
  partition_type (choice of integration weights) for integrals was not specified.
  | Using a version of the partition function of Stratmann and coworkers ('stratmann_smoother').
  | At each grid point, the set of atoms used to build the partition table is smoothly restricted to
  | only those atoms whose free-atom density would be non-zero at that grid point.
  Partitioning for Hartree potential was not defined. Using partition_type for integrals.
  | Adjusted default value of keyword multip_moments_threshold to:       0.10000000E-11
  | This value may affect high angular momentum components of the Hartree potential in periodic systems.
  No q(lm)/r^(l+1) cutoff set for long-range Hartree potential.
  | Using default value of  0.100000E-09 .
  | Verify using the multipole_threshold keyword.
  Defaulting to new monopole extrapolation.
  Density update method: automatic selection selected.
------------------------------------------------------------


------------------------------------------------------------
          Reading geometry description geometry.in.
------------------------------------------------------------
  Input structure read successfully.
  The structure contains       13 atoms,  and a total of         48.000 electrons.

  Input geometry:
  | No unit cell requested.
  | Atomic structure:
  |       Atom                x [A]            y [A]            z [A]
  |    1: Species C             0.00000000        0.00000000        0.00000000
  |    2: Species H             1.09300000        0.00000000        0.00000000
  |    3: Species N            -0.47961000        0.00000000       -1.41207000
  |    4: Species H             0.12300000        0.61325000       -1.96218000
  |    5: Species H            -0.43620000       -0.95115000       -1.77201000
  |    6: Species C            -0.49584000        1.26211000        0.72868000
  |    7: Species H            -1.58789000        1.28919000        0.74431000
  |    8: Species H            -0.13407000        1.27425000        1.75947000
  |    9: Species H            -0.13407000        2.16087000        0.22380000
  |   10: Species C            -0.39425000       -1.28861000        0.74398000
  |   11: Species O            -0.10189000       -1.56493000        1.88303000
  |   12: Species O            -1.10210000       -2.13717000        0.06896000
  |   13: Species H            -1.18209000       -1.63018000       -0.75659000
  |

  | The smallest distance between any two atoms is         0.97209571 AA.
  |
  | The first atom of this pair is atom number                     12 .
  | The second atom of this pair is atom number                    13 .

  Number of empty states per atom not set in control.in - providing a guess from actual geometry.
  | Total number of empty states used during s.c.f. cycle:       29
  If you use a very high smearing, use empty_states (per atom!) in control.in to increase this value.

  Structure-dependent array size parameters: 
  | Maximum number of distinct radial functions  :       21
  | Maximum number of basis functions            :      119
  | Number of Kohn-Sham states (occupied + empty):       53
------------------------------------------------------------

------------------------------------------------------------
          Preparing all fixed parts of the calculation.
------------------------------------------------------------
  Determining machine precision:
    2.225073858507201E-308
  Setting up grids for atomic and cluster calculations.

  Creating wave function, potential, and density for free atoms.

  Species: H

  List of occupied orbitals and eigenvalues:
    n    l              occ      energy [Ha]    energy [eV]
    1    0           1.0000        -0.237589        -6.4651


  Species: C

  List of occupied orbitals and eigenvalues:
    n    l              occ      energy [Ha]    energy [eV]
    1    0           2.0000       -10.038835      -273.1706
    2    0           2.0000        -0.502696       -13.6791
    2    1           2.0000        -0.191971        -5.2238


  Species: N

  List of occupied orbitals and eigenvalues:
    n    l              occ      energy [Ha]    energy [eV]
    1    0           2.0000       -14.128000      -384.4424
    2    0           2.0000        -0.681077       -18.5330
    2    1           3.0000        -0.259788        -7.0692


  Species: O

  List of occupied orbitals and eigenvalues:
    n    l              occ      energy [Ha]    energy [eV]
    1    0           2.0000       -18.898188      -514.2459
    2    0           2.0000        -0.878505       -23.9053
    2    1           4.0000        -0.331779        -9.0282

  Creating fixed part of basis set: Ionic, confined, hydrogenic.
 
  H                    hydrogenic:
 
  List of hydrogenic basis orbitals: 
    n    l      effective z      eigenvalue [eV]  inner max. [A]     outer max. [A]     outer radius [A]   
    2    0         2.100000       -14.9728           0.193243           1.317208           4.583499
    2    1         3.500000       -41.6669           0.602369           0.602369           3.723403
 
 
  C                    hydrogenic:
 
  List of hydrogenic basis orbitals: 
    n    l      effective z      eigenvalue [eV]  inner max. [A]     outer max. [A]     outer radius [A]   
    2    1         1.700000        -9.7616           1.230570           1.230570           4.607917
    3    2         6.000000       -54.4224           0.792453           0.792453           3.883070
    2    0         4.900000       -81.6679           0.082559           0.562749           3.078220
 
 
  N                    hydrogenic:
 
  List of hydrogenic basis orbitals: 
    n    l      effective z      eigenvalue [eV]  inner max. [A]     outer max. [A]     outer radius [A]   
    2    1         1.800000       -10.9749           1.177451           1.177451           4.573712
    3    2         6.800000       -69.9026           0.704619           0.704619           3.538137
    3    0         5.800000       -50.8545           0.067388           1.191934           4.250239
 
 
  O                    hydrogenic:
 
  List of hydrogenic basis orbitals: 
    n    l      effective z      eigenvalue [eV]  inner max. [A]     outer max. [A]     outer radius [A]   
    2    1         1.800000       -10.9749           1.164242           1.164242           4.578029
    3    2         7.600000       -87.3180           0.624125           0.624125           3.251020
    3    0         6.400000       -61.9207           0.061167           1.081902           4.001998
 

  Adding cutoff potential to free-atom effective potential.
  Creating atomic-like basis functions for current effective potential.

  Species H                   :

  List of atomic basis orbitals and eigenvalues:
    n    l      energy [Ha]    energy [eV]    outer radius [A]
    1    0        -0.237589        -6.4651       4.527807


  Species C                   :

  List of atomic basis orbitals and eigenvalues:
    n    l      energy [Ha]    energy [eV]    outer radius [A]
    1    0       -10.038835      -273.1706       1.934409
    2    0        -0.502696       -13.6791       4.496620
    2    1        -0.191971        -5.2238       4.551928


  Species N                   :

  List of atomic basis orbitals and eigenvalues:
    n    l      energy [Ha]    energy [eV]    outer radius [A]
    1    0       -14.128000      -384.4424       1.637919
    2    0        -0.681077       -18.5330       4.463241
    2    1        -0.259788        -7.0692       4.518138


  Species O                   :

  List of atomic basis orbitals and eigenvalues:
    n    l      energy [Ha]    energy [eV]    outer radius [A]
    1    0       -18.898188      -514.2459       1.415765
    2    0        -0.878505       -23.9053       4.413171
    2    1        -0.331779        -9.0282       4.522403

  Assembling full basis from fixed parts.
  | Species H :   atomic orbital   1 s accepted.
  | Species H :    hydro orbital   2 s accepted.
  | Species H :    hydro orbital   2 p accepted.
  | Species C :   atomic orbital   1 s accepted.
  | Species C :    hydro orbital   2 s accepted.
  | Species C :   atomic orbital   2 s accepted.
  | Species C :   atomic orbital   2 p accepted.
  | Species C :    hydro orbital   2 p accepted.
  | Species C :    hydro orbital   3 d accepted.
  | Species N :   atomic orbital   1 s accepted.
  | Species N :    hydro orbital   3 s accepted.
  | Species N :   atomic orbital   2 s accepted.
  | Species N :   atomic orbital   2 p accepted.
  | Species N :    hydro orbital   2 p accepted.
  | Species N :    hydro orbital   3 d accepted.
  | Species O :   atomic orbital   1 s accepted.
  | Species O :    hydro orbital   3 s accepted.
  | Species O :   atomic orbital   2 s accepted.
  | Species O :   atomic orbital   2 p accepted.
  | Species O :    hydro orbital   2 p accepted.
  | Species O :    hydro orbital   3 d accepted.
 
  Basis size parameters after reduction:
  | Total number of radial functions:       21
  | Total number of basis functions :      119
 
  Per-task memory consumption for arrays in subroutine allocate_ext:
  |           5.250512MB.
  Testing on-site integration grid accuracy.
  |  Species  Function  <phi|h_atom|phi> (log., in eV)  <phi|h_atom|phi> (rad., in eV)
           1        1                 -6.4663192853                 -6.4651273558
           1        2                 13.7111246313                 13.7170609718
           1        3                 25.2673269279                 25.2674696378
           2        4               -273.1705927641               -273.1705631568
           2        5                -10.7109323383                -10.7107120029
           2        6                 17.4381822266                 17.4352413244
           2        7                 -5.2255326521                 -5.2270484734
           2        8                  8.6835629259                  8.6603288385
           2        9                 27.4952418996                 27.4953360207
           3       10               -384.4424306495               -384.4423701208
           3       11                 12.5842251816                 12.5842222903
           3       12                -15.7264628251                -15.7264433455
           3       13                 -7.0696854293                 -7.0701769954
           3       14                  8.8090390882                  8.7901077751
           3       15                 35.9586762123                 35.9588528632
           4       16               -514.2458688638               -514.2457643834
           4       17                 15.1795651126                 15.1795290741
           4       18                -21.5359799773                -21.5360846186
           4       19                 -9.0283069236                 -9.0284644067
           4       20                  8.3027758564                  8.2834874195
           4       21                 45.8339351984                 45.8338762259

  Preparing densities etc. for the partition functions (integrals / Hartree potential).

  Preparations completed.
  max(cpu_time)          :      0.151 s.
  Wall clock time (cpu1) :      0.154 s.
------------------------------------------------------------

------------------------------------------------------------
          Begin self-consistency loop: Initialization.

          Date     :  20200710, Time     :  144759.975
------------------------------------------------------------

  Initializing index lists of integration centers etc. from given atomic structure:
  | Number of centers in hartree potential         :        13
  | Number of centers in hartree multipole         :        13
  | Number of centers in electron density summation:        13
  | Number of centers in basis integrals           :        13
  | Number of centers in integrals                 :        13
  | Number of centers in hamiltonian               :        13
  Partitioning the integration grid into batches with parallel hashing+maxmin method.
  | Number of batches:      957
  | Maximal batch size:     139
  | Minimal batch size:      66
  | Average batch size:      72.775
  | Standard deviation of batch sizes:      17.402

  Integration load balanced across     1 MPI tasks.
  Work distribution over tasks is as follows:
  Task     0 has      69646 integration points.
  Initializing partition tables, free-atom densities, potentials, etc. across the integration grid (initialize_grid_storage).
  | initialize_grid_storage: Actual outermost partition radius vs. multipole_radius_free
  | (-- VB: in principle, multipole_radius_free should be larger, hence this output)
  | Species        1: Confinement radius =              4.999999999999999 AA, multipole_radius_free =              5.054417573612229 AA.
  | Species        1: outer_partition_radius set to              5.054417573612229 AA .
  | Species        2: Confinement radius =              4.999999999999999 AA, multipole_radius_free =              5.019602836301480 AA.
  | Species        2: outer_partition_radius set to              5.019602836301480 AA .
  | Species        3: Confinement radius =              4.999999999999999 AA, multipole_radius_free =              5.043624274424571 AA.
  | Species        3: outer_partition_radius set to              5.043624274424571 AA .
  | Species        4: Confinement radius =              4.999999999999999 AA, multipole_radius_free =              5.048384829883283 AA.
  | Species        4: outer_partition_radius set to              5.048384829883283 AA .
  | Original list of interatomic distances with          13 x         13 entries is created.
  | Net number of integration points:    69646
  | of which are non-zero points    :    59415
  Renormalizing the initial density to the exact electron count on the 3D integration grid.
  | Initial density: Formal number of electrons (from input files) :      48.0000000000
  | Integrated number of electrons on 3D grid     :      47.9999700133
  | Charge integration error                      :      -0.0000299867
  | Normalization factor for density and gradient :       1.0000006247
  Obtaining max. number of non-zero basis functions in each batch (get_n_compute_maxes).
  | Maximal number of non-zero basis functions:      119 in task     0
  Selecting the method for density update.
  Loop over occupied states selected for charge density update.
  Allocating        0.050 MB for KS_eigenvector
  Integrating Hamiltonian matrix: batch-based integration.
  Time summed over all CPUs for integration: real work        0.498 s, elapsed        0.498 s
  Integrating overlap matrix.
  Time summed over all CPUs for integration: real work        0.212 s, elapsed        0.212 s

  Updating Kohn-Sham eigenvalues and eigenvectors using ELSI and the ELPA eigensolver.
  Overlap matrix is nonsingular
  | Lowest eigenvalue of overlap  :  0.41E-02
  | Highest eigenvalue of overlap :  0.63E+01
  Finished singularity check of overlap matrix
  | Time :     0.002 s
  Finished Cholesky decomposition
  | Time :     0.000 s
  Finished transformation to standard eigenproblem
  | Time :     0.000 s
  Starting LAPACK eigensolver
  Finished solving standard eigenproblem
  | Time :     0.002 s
  Finished back-transformation of eigenvectors
  | Time :     0.000 s

  Obtaining occupation numbers and chemical potential using ELSI.
  | Chemical potential (Fermi level):    -9.02304449eV
  Writing Kohn-Sham eigenvalues.

  State    Occupation    Eigenvalue [Ha]    Eigenvalue [eV]
      1       2.00000         -19.007963         -517.23299
      2       2.00000         -18.977116         -516.39361
      3       2.00000         -14.247800         -387.70238
      4       2.00000         -10.166624         -276.64792
      5       2.00000         -10.142045         -275.97909
      6       2.00000         -10.132059         -275.70734
      7       2.00000          -1.182775          -32.18494
      8       2.00000          -1.102599          -30.00325
      9       2.00000          -0.994586          -27.06406
     10       2.00000          -0.862525          -23.47051
     11       2.00000          -0.752137          -20.46668
     12       2.00000          -0.684837          -18.63536
     13       2.00000          -0.649700          -17.67925
     14       2.00000          -0.604656          -16.45353
     15       2.00000          -0.580760          -15.80329
     16       2.00000          -0.559665          -15.22927
     17       2.00000          -0.551070          -14.99536
     18       2.00000          -0.530230          -14.42830
     19       2.00000          -0.515585          -14.02979
     20       2.00000          -0.503286          -13.69511
     21       2.00000          -0.479363          -13.04413
     22       2.00000          -0.430316          -11.70948
     23       2.00000          -0.401657          -10.92963
     24       2.00000          -0.392234          -10.67324
     25       0.00000          -0.148176           -4.03207
     26       0.00000          -0.072757           -1.97983
     27       0.00000          -0.028991           -0.78889
     28       0.00000          -0.019210           -0.52274
     29       0.00000           0.000885            0.02407
     30       0.00000           0.015663            0.42622
     31       0.00000           0.018216            0.49569
     32       0.00000           0.039614            1.07796
     33       0.00000           0.056824            1.54626
     34       0.00000           0.063858            1.73766
     35       0.00000           0.082404            2.24234
     36       0.00000           0.131164            3.56914
     37       0.00000           0.176457            4.80165
     38       0.00000           0.200819            5.46456
     39       0.00000           0.213222            5.80205
     40       0.00000           0.220629            6.00362
     41       0.00000           0.229007            6.23160
     42       0.00000           0.260114            7.07807
     43       0.00000           0.287432            7.82143
     44       0.00000           0.301251            8.19745
     45       0.00000           0.348564            9.48491
     46       0.00000           0.360789            9.81756
     47       0.00000           0.375971           10.23068
     48       0.00000           0.414303           11.27375
     49       0.00000           0.421298           11.46411
     50       0.00000           0.452862           12.32299
     51       0.00000           0.525442           14.29800
     52       0.00000           0.549954           14.96502
     53       0.00000           0.586919           15.97089

  Highest occupied state (VBM) at    -10.67324292 eV
  | Occupation number:      2.00000000

  Lowest unoccupied state (CBM) at    -4.03207229 eV
  | Occupation number:      0.00000000

  Overall HOMO-LUMO gap:      6.64117063 eV.
  Calculating total energy contributions from superposition of free atom densities.

  Total energy components:
  | Sum of eigenvalues            :        -188.90317983 Ha       -5140.31705958 eV
  | XC energy correction          :         -41.81456514 Ha       -1137.83220966 eV
  | XC potential correction       :          53.75536831 Ha        1462.75799599 eV
  | Free-atom electrostatic energy:        -146.79123760 Ha       -3994.39280761 eV
  | Hartree energy correction     :           0.00000000 Ha           0.00000000 eV
  | vdW energy correction         :           0.00000000 Ha           0.00000000 eV
  | Entropy correction            :           0.00000000 Ha           0.00000000 eV
  | ---------------------------
  | Total energy                  :        -323.75361426 Ha       -8809.78408086 eV
  | Total energy, T -> 0          :        -323.75361426 Ha       -8809.78408086 eV  <-- do not rely on this value for anything but (periodic) metals
  | Electronic free energy        :        -323.75361426 Ha       -8809.78408086 eV

  Derived energy quantities:
  | Kinetic energy                :         320.55534454 Ha        8722.75473384 eV
  | Electrostatic energy          :        -602.49439366 Ha      -16394.70660504 eV
  | Energy correction for multipole
  | error in Hartree potential    :           0.00000000 Ha           0.00000000 eV
  | Sum of eigenvalues per atom                           :        -395.40900458 eV
  | Total energy (T->0) per atom                          :        -677.67569853 eV  <-- do not rely on this value for anything but (periodic) metals
  | Electronic free energy per atom                       :        -677.67569853 eV
  Initialize hartree_potential_storage
  Max. number of atoms included in rho_multipole:           13

  End scf initialization - timings             :  max(cpu_time)    wall_clock(cpu1)
  | Time for scf. initialization               :        1.161 s           1.167 s
  | Boundary condition initialization          :        0.000 s           0.000 s
  | Integration                                :        0.711 s           0.711 s
  | Solution of K.-S. eqns.                    :        0.004 s           0.005 s
  | Grid partitioning                          :        0.115 s           0.120 s
  | Preloading free-atom quantities on grid    :        0.002 s           0.003 s
  | Free-atom superposition energy             :        0.085 s           0.084 s
  | Total energy evaluation                    :        0.000 s           0.000 s

  Partial memory accounting:
  | Current value for overall tracked memory usage on task 0  :           0.165 MB
  | Peak value for overall tracked memory usage on task 0     :           0.678 MB after allocating wave
  | Largest tracked array allocation on task 0 so far         :           0.132 MB  when allocating H_times_psi
  Note:  These values currently only include a subset of arrays which are explicitly tracked.
  The "true" memory usage will be greater.
------------------------------------------------------------

------------------------------------------------------------
          Begin self-consistency iteration #    1

  Date     :  20200710, Time     :  144801.143
------------------------------------------------------------
  Evaluating new KS density.
  Integration grid: deviation in total charge (<rho> - N_e) =   6.394885E-14
  Pulay mixing of updated and previous charge densities.

  Evaluating partitioned Hartree potential by multipole expansion.
  | Analytical far-field extrapolation by fixed multipoles:
  | Hartree multipole sum: apparent total charge =  -0.134230E-03
  Summing up the Hartree potential.
  Time summed over all CPUs for potential: real work        0.282 s, elapsed        0.282 s
  | RMS charge density error from multipole expansion :   0.592149E-02

  Integrating Hamiltonian matrix: batch-based integration.
  Time summed over all CPUs for integration: real work        0.500 s, elapsed        0.500 s

  Updating Kohn-Sham eigenvalues and eigenvectors using ELSI and the ELPA eigensolver.
  Finished Cholesky decomposition
  | Time :     0.000 s
  Finished transformation to standard eigenproblem
  | Time :     0.000 s
  Starting LAPACK eigensolver
  Finished solving standard eigenproblem
  | Time :     0.001 s
  Finished back-transformation of eigenvectors
  | Time :     0.000 s

  Obtaining occupation numbers and chemical potential using ELSI.
  | Chemical potential (Fermi level):    -8.16740624eV
  Writing Kohn-Sham eigenvalues.

  State    Occupation    Eigenvalue [Ha]    Eigenvalue [eV]
      1       2.00000         -18.911088         -514.59689
      2       2.00000         -18.829331         -512.37216
      3       2.00000         -14.113238         -384.04075
      4       2.00000         -10.114689         -275.23469
      5       2.00000         -10.068963         -273.99042
      6       2.00000         -10.031411         -272.96858
      7       2.00000          -1.135543          -30.89970
      8       2.00000          -1.036678          -28.20944
      9       2.00000          -0.935063          -25.44437
     10       2.00000          -0.800163          -21.77355
     11       2.00000          -0.701469          -19.08794
     12       2.00000          -0.642776          -17.49081
     13       2.00000          -0.600155          -16.33104
     14       2.00000          -0.548698          -14.93084
     15       2.00000          -0.529457          -14.40724
     16       2.00000          -0.501490          -13.64625
     17       2.00000          -0.488468          -13.29190
     18       2.00000          -0.474276          -12.90570
     19       2.00000          -0.454161          -12.35836
     20       2.00000          -0.446448          -12.14848
     21       2.00000          -0.425930          -11.59014
     22       2.00000          -0.367372           -9.99669
     23       2.00000          -0.328857           -8.94864
     24       2.00000          -0.327389           -8.90872
     25       0.00000          -0.109944           -2.99172
     26       0.00000          -0.052508           -1.42883
     27       0.00000           0.005884            0.16011
     28       0.00000           0.014492            0.39435
     29       0.00000           0.036587            0.99558
     30       0.00000           0.043718            1.18963
     31       0.00000           0.055489            1.50992
     32       0.00000           0.079219            2.15566
     33       0.00000           0.092718            2.52300
     34       0.00000           0.095053            2.58651
     35       0.00000           0.112967            3.07398
     36       0.00000           0.159655            4.34444
     37       0.00000           0.202302            5.50493
     38       0.00000           0.232326            6.32192
     39       0.00000           0.244559            6.65480
     40       0.00000           0.247904            6.74580
     41       0.00000           0.261019            7.10268
     42       0.00000           0.292055            7.94723
     43       0.00000           0.323285            8.79703
     44       0.00000           0.340638            9.26924
     45       0.00000           0.388368           10.56804
     46       0.00000           0.398276           10.83763
     47       0.00000           0.411058           11.18545
     48       0.00000           0.449781           12.23916
     49       0.00000           0.454995           12.38104
     50       0.00000           0.486755           13.24526
     51       0.00000           0.559006           15.21132
     52       0.00000           0.580812           15.80470
     53       0.00000           0.615146           16.73896

  Highest occupied state (VBM) at     -8.90872075 eV
  | Occupation number:      2.00000000

  Lowest unoccupied state (CBM) at    -2.99171951 eV
  | Occupation number:      0.00000000

  Overall HOMO-LUMO gap:      5.91700125 eV.

  Total energy components:
  | Sum of eigenvalues            :        -185.62622615 Ha       -5051.14661310 eV
  | XC energy correction          :         -42.13491865 Ha       -1146.54947217 eV
  | XC potential correction       :          54.17187593 Ha        1474.09174500 eV
  | Free-atom electrostatic energy:        -146.79123760 Ha       -3994.39280761 eV
  | Hartree energy correction     :          -3.19784876 Ha         -87.01789225 eV
  | vdW energy correction         :           0.00000000 Ha           0.00000000 eV
  | Entropy correction            :           0.00000000 Ha           0.00000000 eV
  | ---------------------------
  | Total energy                  :        -323.57835523 Ha       -8805.01504012 eV
  | Total energy, T -> 0          :        -323.57835523 Ha       -8805.01504012 eV  <-- do not rely on this value for anything but (periodic) metals
  | Electronic free energy        :        -323.57835523 Ha       -8805.01504012 eV

  Derived energy quantities:
  | Kinetic energy                :         322.30321227 Ha        8770.31663454 eV
  | Electrostatic energy          :        -603.74664885 Ha      -16428.78220250 eV
  | Energy correction for multipole
  | error in Hartree potential    :           0.01190126 Ha           0.32384964 eV
  | Sum of eigenvalues per atom                           :        -388.54973947 eV
  | Total energy (T->0) per atom                          :        -677.30884924 eV  <-- do not rely on this value for anything but (periodic) metals
  | Electronic free energy per atom                       :        -677.30884924 eV

  Self-consistency convergence accuracy:
  | Change of charge density      :  0.5760E+00
  | Change of sum of eigenvalues  :  0.8917E+02 eV
  | Change of total energy        :  0.4769E+01 eV

  End self-consistency iteration #     1       :  max(cpu_time)    wall_clock(cpu1)
  | Time for this iteration                    :        1.193 s           1.201 s
  | Charge density update                      :        0.399 s           0.400 s
  | Density mixing                             :        0.006 s           0.005 s
  | Hartree multipole update                   :        0.009 s           0.010 s
  | Hartree multipole summation                :        0.283 s           0.283 s
  | Integration                                :        0.494 s           0.500 s
  | Solution of K.-S. eqns.                    :        0.002 s           0.002 s
  | Total energy evaluation                    :        0.000 s           0.000 s

  Partial memory accounting:
  | Current value for overall tracked memory usage on task 0  :           0.165 MB
  | Peak value for overall tracked memory usage on task 0     :           0.695 MB after allocating gradient_basis_wave
  | Largest tracked array allocation on task 0 so far         :           0.397 MB  when allocating gradient_basis_wave
  Note:  These values currently only include a subset of arrays which are explicitly tracked.
  The "true" memory usage will be greater.
------------------------------------------------------------

------------------------------------------------------------
          Begin self-consistency iteration #    2

  Date     :  20200710, Time     :  144802.345
------------------------------------------------------------
  Evaluating new KS density.
  Integration grid: deviation in total charge (<rho> - N_e) =   3.552714E-14
  Pulay mixing of updated and previous charge densities.

  Evaluating partitioned Hartree potential by multipole expansion.
  | Analytical far-field extrapolation by fixed multipoles:
  | Hartree multipole sum: apparent total charge =  -0.266663E-03
  Summing up the Hartree potential.
  Time summed over all CPUs for potential: real work        0.286 s, elapsed        0.286 s
  | RMS charge density error from multipole expansion :   0.140672E-01

  Integrating Hamiltonian matrix: batch-based integration.
  Time summed over all CPUs for integration: real work        0.497 s, elapsed        0.497 s

  Updating Kohn-Sham eigenvalues and eigenvectors using ELSI and the ELPA eigensolver.
  Finished Cholesky decomposition
  | Time :     0.000 s
  Finished transformation to standard eigenproblem
  | Time :     0.000 s
  Starting LAPACK eigensolver
  Finished solving standard eigenproblem
  | Time :     0.001 s
  Finished back-transformation of eigenvectors
  | Time :     0.000 s

  Obtaining occupation numbers and chemical potential using ELSI.
  | Chemical potential (Fermi level):    -3.04858496eV
  Highest occupied state (VBM) at     -7.02009320 eV
  | Occupation number:      2.00000000

  Lowest unoccupied state (CBM) at    -1.67870901 eV
  | Occupation number:      0.00000000

  Overall HOMO-LUMO gap:      5.34138419 eV.

  Checking to see if s.c.f. parameters should be adjusted.

  Total energy components:
  | Sum of eigenvalues            :        -182.18223304 Ha       -4957.43079232 eV
  | XC energy correction          :         -42.48489550 Ha       -1156.07282693 eV
  | XC potential correction       :          54.62526333 Ha        1486.42904397 eV
  | Free-atom electrostatic energy:        -146.79123760 Ha       -3994.39280761 eV
  | Hartree energy correction     :          -6.67028230 Ha        -181.50761639 eV
  | vdW energy correction         :           0.00000000 Ha           0.00000000 eV
  | Entropy correction            :           0.00000000 Ha           0.00000000 eV
  | ---------------------------
  | Total energy                  :        -323.50338511 Ha       -8802.97499929 eV
  | Total energy, T -> 0          :        -323.50338511 Ha       -8802.97499929 eV  <-- do not rely on this value for anything but (periodic) metals
  | Electronic free energy        :        -323.50338511 Ha       -8802.97499929 eV

  Derived energy quantities:
  | Kinetic energy                :         323.59203359 Ha        8805.38724726 eV
  | Electrostatic energy          :        -604.61052320 Ha      -16452.28941962 eV
  | Energy correction for multipole
  | error in Hartree potential    :           0.02616346 Ha           0.71194405 eV
  | Sum of eigenvalues per atom                           :        -381.34083018 eV
  | Total energy (T->0) per atom                          :        -677.15192302 eV  <-- do not rely on this value for anything but (periodic) metals
  | Electronic free energy per atom                       :        -677.15192302 eV

  Self-consistency convergence accuracy:
  | Change of charge density      :  0.3603E+00
  | Change of sum of eigenvalues  :  0.9372E+02 eV
  | Change of total energy        :  0.2040E+01 eV

  End self-consistency iteration #     2       :  max(cpu_time)    wall_clock(cpu1)
  | Time for this iteration                    :        1.196 s           1.197 s
  | Charge density update                      :        0.395 s           0.395 s
  | Density mixing                             :        0.007 s           0.007 s
  | Hartree multipole update                   :        0.009 s           0.009 s
  | Hartree multipole summation                :        0.286 s           0.287 s
  | Integration                                :        0.497 s           0.497 s
  | Solution of K.-S. eqns.                    :        0.002 s           0.002 s
  | Total energy evaluation                    :        0.000 s           0.000 s

  Partial memory accounting:
  | Current value for overall tracked memory usage on task 0  :           0.166 MB
  | Peak value for overall tracked memory usage on task 0     :           0.695 MB after allocating gradient_basis_wave
  | Largest tracked array allocation on task 0 so far         :           0.397 MB  when allocating gradient_basis_wave
  Note:  These values currently only include a subset of arrays which are explicitly tracked.
  The "true" memory usage will be greater.
------------------------------------------------------------

------------------------------------------------------------
          Begin self-consistency iteration #    3

  Date     :  20200710, Time     :  144803.545
------------------------------------------------------------
  Evaluating new KS density.
  Integration grid: deviation in total charge (<rho> - N_e) =   7.105427E-15
  Pulay mixing of updated and previous charge densities.

  Evaluating partitioned Hartree potential by multipole expansion.
  | Analytical far-field extrapolation by fixed multipoles:
  | Hartree multipole sum: apparent total charge =  -0.361459E-03
  Summing up the Hartree potential.
  Time summed over all CPUs for potential: real work        0.285 s, elapsed        0.285 s
  | RMS charge density error from multipole expansion :   0.222985E-01

  Integrating Hamiltonian matrix: batch-based integration.
  Time summed over all CPUs for integration: real work        0.497 s, elapsed        0.497 s

  Updating Kohn-Sham eigenvalues and eigenvectors using ELSI and the ELPA eigensolver.
  Finished Cholesky decomposition
  | Time :     0.000 s
  Finished transformation to standard eigenproblem
  | Time :     0.000 s
  Starting LAPACK eigensolver
  Finished solving standard eigenproblem
  | Time :     0.001 s
  Finished back-transformation of eigenvectors
  | Time :     0.000 s

  Obtaining occupation numbers and chemical potential using ELSI.
  | Chemical potential (Fermi level):    -2.53873190eV
  Highest occupied state (VBM) at     -6.42765335 eV
  | Occupation number:      2.00000000

  Lowest unoccupied state (CBM) at    -0.95917506 eV
  | Occupation number:      0.00000000

  Overall HOMO-LUMO gap:      5.46847830 eV.

  Total energy components:
  | Sum of eigenvalues            :        -180.86455477 Ha       -4921.57494221 eV
  | XC energy correction          :         -42.63887683 Ha       -1160.26287214 eV
  | XC potential correction       :          54.82136936 Ha        1491.76536035 eV
  | Free-atom electrostatic energy:        -146.79123760 Ha       -3994.39280761 eV
  | Hartree energy correction     :          -8.01803205 Ha        -218.18175305 eV
  | vdW energy correction         :           0.00000000 Ha           0.00000000 eV
  | Entropy correction            :           0.00000000 Ha           0.00000000 eV
  | ---------------------------
  | Total energy                  :        -323.49133190 Ha       -8802.64701466 eV
  | Total energy, T -> 0          :        -323.49133190 Ha       -8802.64701466 eV  <-- do not rely on this value for anything but (periodic) metals
  | Electronic free energy        :        -323.49133190 Ha       -8802.64701466 eV

  Derived energy quantities:
  | Kinetic energy                :         323.21699652 Ha        8795.18196919 eV
  | Electrostatic energy          :        -604.06945158 Ha      -16437.56611171 eV
  | Energy correction for multipole
  | error in Hartree potential    :           0.03711860 Ha           1.01004841 eV
  | Sum of eigenvalues per atom                           :        -378.58268786 eV
  | Total energy (T->0) per atom                          :        -677.12669344 eV  <-- do not rely on this value for anything but (periodic) metals
  | Electronic free energy per atom                       :        -677.12669344 eV

  Self-consistency convergence accuracy:
  | Change of charge density      :  0.2020E+00
  | Change of sum of eigenvalues  :  0.3586E+02 eV
  | Change of total energy        :  0.3280E+00 eV

  End self-consistency iteration #     3       :  max(cpu_time)    wall_clock(cpu1)
  | Time for this iteration                    :        1.190 s           1.191 s
  | Charge density update                      :        0.388 s           0.388 s
  | Density mixing                             :        0.009 s           0.009 s
  | Hartree multipole update                   :        0.009 s           0.009 s
  | Hartree multipole summation                :        0.285 s           0.285 s
  | Integration                                :        0.497 s           0.497 s
  | Solution of K.-S. eqns.                    :        0.002 s           0.002 s
  | Total energy evaluation                    :        0.000 s           0.000 s

  Partial memory accounting:
  | Current value for overall tracked memory usage on task 0  :           0.166 MB
  | Peak value for overall tracked memory usage on task 0     :           0.695 MB after allocating gradient_basis_wave
  | Largest tracked array allocation on task 0 so far         :           0.397 MB  when allocating gradient_basis_wave
  Note:  These values currently only include a subset of arrays which are explicitly tracked.
  The "true" memory usage will be greater.
------------------------------------------------------------

------------------------------------------------------------
          Begin self-consistency iteration #    4

  Date     :  20200710, Time     :  144804.738
------------------------------------------------------------
  Evaluating new KS density.
  Integration grid: deviation in total charge (<rho> - N_e) =   0.000000E+00
  Pulay mixing of updated and previous charge densities.

  Evaluating partitioned Hartree potential by multipole expansion.
  | Analytical far-field extrapolation by fixed multipoles:
  | Hartree multipole sum: apparent total charge =  -0.391706E-03
  Summing up the Hartree potential.
  Time summed over all CPUs for potential: real work        0.287 s, elapsed        0.287 s
  | RMS charge density error from multipole expansion :   0.258079E-01

  Integrating Hamiltonian matrix: batch-based integration.
  Time summed over all CPUs for integration: real work        0.506 s, elapsed        0.506 s

  Updating Kohn-Sham eigenvalues and eigenvectors using ELSI and the ELPA eigensolver.
  Finished Cholesky decomposition
  | Time :     0.000 s
  Finished transformation to standard eigenproblem
  | Time :     0.000 s
  Starting LAPACK eigensolver
  Finished solving standard eigenproblem
  | Time :     0.002 s
  Finished back-transformation of eigenvectors
  | Time :     0.000 s

  Obtaining occupation numbers and chemical potential using ELSI.
  | Chemical potential (Fermi level):    -2.46957371eV
  Highest occupied state (VBM) at     -6.09389139 eV
  | Occupation number:      2.00000000

  Lowest unoccupied state (CBM) at    -0.88775734 eV
  | Occupation number:      0.00000000

  Overall HOMO-LUMO gap:      5.20613405 eV.

  Total energy components:
  | Sum of eigenvalues            :        -180.77568601 Ha       -4919.15670033 eV
  | XC energy correction          :         -42.67398890 Ha       -1161.21831998 eV
  | XC potential correction       :          54.86522777 Ha        1492.95880842 eV
  | Free-atom electrostatic energy:        -146.79123760 Ha       -3994.39280761 eV
  | Hartree energy correction     :          -8.11473273 Ha        -220.81311248 eV
  | vdW energy correction         :           0.00000000 Ha           0.00000000 eV
  | Entropy correction            :           0.00000000 Ha           0.00000000 eV
  | ---------------------------
  | Total energy                  :        -323.49041747 Ha       -8802.62213198 eV
  | Total energy, T -> 0          :        -323.49041747 Ha       -8802.62213198 eV  <-- do not rely on this value for anything but (periodic) metals
  | Electronic free energy        :        -323.49041747 Ha       -8802.62213198 eV

  Derived energy quantities:
  | Kinetic energy                :         322.82010295 Ha        8784.38194566 eV
  | Electrostatic energy          :        -603.63653153 Ha      -16425.78575765 eV
  | Energy correction for multipole
  | error in Hartree potential    :           0.04120971 Ha           1.12137319 eV
  | Sum of eigenvalues per atom                           :        -378.39666926 eV
  | Total energy (T->0) per atom                          :        -677.12477938 eV  <-- do not rely on this value for anything but (periodic) metals
  | Electronic free energy per atom                       :        -677.12477938 eV

  Self-consistency convergence accuracy:
  | Change of charge density      :  0.6575E-01
  | Change of sum of eigenvalues  :  0.2418E+01 eV
  | Change of total energy        :  0.2488E-01 eV

  End self-consistency iteration #     4       :  max(cpu_time)    wall_clock(cpu1)
  | Time for this iteration                    :        1.204 s           1.206 s
  | Charge density update                      :        0.390 s           0.391 s
  | Density mixing                             :        0.010 s           0.010 s
  | Hartree multipole update                   :        0.009 s           0.009 s
  | Hartree multipole summation                :        0.287 s           0.287 s
  | Integration                                :        0.505 s           0.506 s
  | Solution of K.-S. eqns.                    :        0.002 s           0.002 s
  | Total energy evaluation                    :        0.000 s           0.000 s

  Partial memory accounting:
  | Current value for overall tracked memory usage on task 0  :           0.166 MB
  | Peak value for overall tracked memory usage on task 0     :           0.696 MB after allocating gradient_basis_wave
  | Largest tracked array allocation on task 0 so far         :           0.397 MB  when allocating gradient_basis_wave
  Note:  These values currently only include a subset of arrays which are explicitly tracked.
  The "true" memory usage will be greater.
------------------------------------------------------------

------------------------------------------------------------
          Begin self-consistency iteration #    5

  Date     :  20200710, Time     :  144805.946
------------------------------------------------------------
  Evaluating new KS density.
  Integration grid: deviation in total charge (<rho> - N_e) =   2.842171E-14
  Pulay mixing of updated and previous charge densities.

  Evaluating partitioned Hartree potential by multipole expansion.
  | Analytical far-field extrapolation by fixed multipoles:
  | Hartree multipole sum: apparent total charge =  -0.386905E-03
  Summing up the Hartree potential.
  Time summed over all CPUs for potential: real work        0.282 s, elapsed        0.282 s
  | RMS charge density error from multipole expansion :   0.255506E-01

  Integrating Hamiltonian matrix: batch-based integration.
  Time summed over all CPUs for integration: real work        0.499 s, elapsed        0.499 s

  Updating Kohn-Sham eigenvalues and eigenvectors using ELSI and the ELPA eigensolver.
  Finished Cholesky decomposition
  | Time :     0.000 s
  Finished transformation to standard eigenproblem
  | Time :     0.000 s
  Starting LAPACK eigensolver
  Finished solving standard eigenproblem
  | Time :     0.002 s
  Finished back-transformation of eigenvectors
  | Time :     0.000 s

  Obtaining occupation numbers and chemical potential using ELSI.
  | Chemical potential (Fermi level):    -2.49067996eV
  Highest occupied state (VBM) at     -6.23539484 eV
  | Occupation number:      2.00000000

  Lowest unoccupied state (CBM) at    -0.94830618 eV
  | Occupation number:      0.00000000

  Overall HOMO-LUMO gap:      5.28708865 eV.

  Total energy components:
  | Sum of eigenvalues            :        -180.90879987 Ha       -4922.77891262 eV
  | XC energy correction          :         -42.65614283 Ha       -1160.73270385 eV
  | XC potential correction       :          54.84210733 Ha        1492.32966933 eV
  | Free-atom electrostatic energy:        -146.79123760 Ha       -3994.39280761 eV
  | Hartree energy correction     :          -7.97601248 Ha        -217.03834243 eV
  | vdW energy correction         :           0.00000000 Ha           0.00000000 eV
  | Entropy correction            :           0.00000000 Ha           0.00000000 eV
  | ---------------------------
  | Total energy                  :        -323.49008545 Ha       -8802.61309717 eV
  | Total energy, T -> 0          :        -323.49008545 Ha       -8802.61309717 eV  <-- do not rely on this value for anything but (periodic) metals
  | Electronic free energy        :        -323.49008545 Ha       -8802.61309717 eV

  Derived energy quantities:
  | Kinetic energy                :         322.74868806 Ha        8782.43864776 eV
  | Electrostatic energy          :        -603.58263068 Ha      -16424.31904108 eV
  | Energy correction for multipole
  | error in Hartree potential    :           0.04063999 Ha           1.10587027 eV
  | Sum of eigenvalues per atom                           :        -378.67530097 eV
  | Total energy (T->0) per atom                          :        -677.12408440 eV  <-- do not rely on this value for anything but (periodic) metals
  | Electronic free energy per atom                       :        -677.12408440 eV

  Self-consistency convergence accuracy:
  | Change of charge density      :  0.2402E-01
  | Change of sum of eigenvalues  : -0.3622E+01 eV
  | Change of total energy        :  0.9035E-02 eV

  End self-consistency iteration #     5       :  max(cpu_time)    wall_clock(cpu1)
  | Time for this iteration                    :        1.192 s           1.194 s
  | Charge density update                      :        0.389 s           0.389 s
  | Density mixing                             :        0.011 s           0.011 s
  | Hartree multipole update                   :        0.009 s           0.009 s
  | Hartree multipole summation                :        0.282 s           0.282 s
  | Integration                                :        0.499 s           0.500 s
  | Solution of K.-S. eqns.                    :        0.002 s           0.002 s
  | Total energy evaluation                    :        0.000 s           0.001 s

  Partial memory accounting:
  | Current value for overall tracked memory usage on task 0  :           0.166 MB
  | Peak value for overall tracked memory usage on task 0     :           0.696 MB after allocating gradient_basis_wave
  | Largest tracked array allocation on task 0 so far         :           0.397 MB  when allocating gradient_basis_wave
  Note:  These values currently only include a subset of arrays which are explicitly tracked.
  The "true" memory usage will be greater.
------------------------------------------------------------

------------------------------------------------------------
          Begin self-consistency iteration #    6

  Date     :  20200710, Time     :  144807.142
------------------------------------------------------------
  Evaluating new KS density.
  Integration grid: deviation in total charge (<rho> - N_e) =   2.842171E-14
  Pulay mixing of updated and previous charge densities.

  Evaluating partitioned Hartree potential by multipole expansion.
  | Analytical far-field extrapolation by fixed multipoles:
  | Hartree multipole sum: apparent total charge =  -0.387779E-03
  Summing up the Hartree potential.
  Time summed over all CPUs for potential: real work        0.284 s, elapsed        0.284 s
  | RMS charge density error from multipole expansion :   0.258351E-01

  Integrating Hamiltonian matrix: batch-based integration.
  Time summed over all CPUs for integration: real work        0.506 s, elapsed        0.506 s

  Updating Kohn-Sham eigenvalues and eigenvectors using ELSI and the ELPA eigensolver.
  Finished Cholesky decomposition
  | Time :     0.000 s
  Finished transformation to standard eigenproblem
  | Time :     0.000 s
  Starting LAPACK eigensolver
  Finished solving standard eigenproblem
  | Time :     0.002 s
  Finished back-transformation of eigenvectors
  | Time :     0.000 s

  Obtaining occupation numbers and chemical potential using ELSI.
  | Chemical potential (Fermi level):    -2.49133443eV
  Highest occupied state (VBM) at     -6.27891047 eV
  | Occupation number:      2.00000000

  Lowest unoccupied state (CBM) at    -0.99064313 eV
  | Occupation number:      0.00000000

  Overall HOMO-LUMO gap:      5.28826733 eV.

  Total energy components:
  | Sum of eigenvalues            :        -180.97399390 Ha       -4924.55293244 eV
  | XC energy correction          :         -42.64749965 Ha       -1160.49751093 eV
  | XC potential correction       :          54.83087013 Ha        1492.02388953 eV
  | Free-atom electrostatic energy:        -146.79123760 Ha       -3994.39280761 eV
  | Hartree energy correction     :          -7.90814048 Ha        -215.19145123 eV
  | vdW energy correction         :           0.00000000 Ha           0.00000000 eV
  | Entropy correction            :           0.00000000 Ha           0.00000000 eV
  | ---------------------------
  | Total energy                  :        -323.49000150 Ha       -8802.61081268 eV
  | Total energy, T -> 0          :        -323.49000150 Ha       -8802.61081268 eV  <-- do not rely on this value for anything but (periodic) metals
  | Electronic free energy        :        -323.49000150 Ha       -8802.61081268 eV

  Derived energy quantities:
  | Kinetic energy                :         322.64685382 Ha        8779.66759701 eV
  | Electrostatic energy          :        -603.48935567 Ha      -16421.78089876 eV
  | Energy correction for multipole
  | error in Hartree potential    :           0.04068448 Ha           1.10708116 eV
  | Sum of eigenvalues per atom                           :        -378.81176403 eV
  | Total energy (T->0) per atom                          :        -677.12390867 eV  <-- do not rely on this value for anything but (periodic) metals
  | Electronic free energy per atom                       :        -677.12390867 eV

  Self-consistency convergence accuracy:
  | Change of charge density      :  0.1126E-01
  | Change of sum of eigenvalues  : -0.1774E+01 eV
  | Change of total energy        :  0.2284E-02 eV

  End self-consistency iteration #     6       :  max(cpu_time)    wall_clock(cpu1)
  | Time for this iteration                    :        1.204 s           1.205 s
  | Charge density update                      :        0.387 s           0.388 s
  | Density mixing                             :        0.014 s           0.014 s
  | Hartree multipole update                   :        0.009 s           0.009 s
  | Hartree multipole summation                :        0.285 s           0.285 s
  | Integration                                :        0.506 s           0.506 s
  | Solution of K.-S. eqns.                    :        0.002 s           0.002 s
  | Total energy evaluation                    :        0.000 s           0.000 s

  Partial memory accounting:
  | Current value for overall tracked memory usage on task 0  :           0.166 MB
  | Peak value for overall tracked memory usage on task 0     :           0.696 MB after allocating gradient_basis_wave
  | Largest tracked array allocation on task 0 so far         :           0.397 MB  when allocating gradient_basis_wave
  Note:  These values currently only include a subset of arrays which are explicitly tracked.
  The "true" memory usage will be greater.
------------------------------------------------------------

------------------------------------------------------------
          Begin self-consistency iteration #    7

  Date     :  20200710, Time     :  144808.348
------------------------------------------------------------
  Evaluating new KS density.
  Integration grid: deviation in total charge (<rho> - N_e) =   0.000000E+00
  Pulay mixing of updated and previous charge densities.

  Evaluating partitioned Hartree potential by multipole expansion.
  | Analytical far-field extrapolation by fixed multipoles:
  | Hartree multipole sum: apparent total charge =  -0.389092E-03
  Summing up the Hartree potential.
  Time summed over all CPUs for potential: real work        0.281 s, elapsed        0.281 s
  | RMS charge density error from multipole expansion :   0.259906E-01

  Integrating Hamiltonian matrix: batch-based integration.
  Time summed over all CPUs for integration: real work        0.498 s, elapsed        0.498 s

  Updating Kohn-Sham eigenvalues and eigenvectors using ELSI and the ELPA eigensolver.
  Finished Cholesky decomposition
  | Time :     0.000 s
  Finished transformation to standard eigenproblem
  | Time :     0.000 s
  Starting LAPACK eigensolver
  Finished solving standard eigenproblem
  | Time :     0.002 s
  Finished back-transformation of eigenvectors
  | Time :     0.000 s

[...]
  |   Hirshfeld dipole moment :      0.06117593
  |   Hirshfeld second moments:      0.00151628      -0.02459398      -0.01447490
  |                                 -0.02459398      -0.02449983       0.00670638
  |                                 -0.01447490       0.00670638      -0.02025156
  ----------------------------------------------------------------------
  | Atom    12: O
  |   Hirshfeld charge        :     -0.13635636
  |   Free atom volume        :     23.61338643
  |   Hirshfeld volume        :     21.04341685
  |   Hirshfeld dipole vector :      0.01321517       0.03783257      -0.00892624
  |   Hirshfeld dipole moment :      0.04105633
  |   Hirshfeld second moments:      0.05839237      -0.01166482       0.01178176
  |                                 -0.01166482       0.03101426       0.00661792
  |                                  0.01178176       0.00661792       0.08074075
  ----------------------------------------------------------------------
  | Atom    13: H
  |   Hirshfeld charge        :      0.13145262
  |   Free atom volume        :      9.95071624
  |   Hirshfeld volume        :      7.04924707
  |   Hirshfeld dipole vector :     -0.02555480       0.00727261      -0.07168120
  |   Hirshfeld dipole moment :      0.07644693
  |   Hirshfeld second moments:      0.10494494      -0.00790508       0.00617442
  |                                 -0.00790508       0.06475024       0.03247138
  |                                  0.00617442       0.03247138       0.09025319
  ----------------------------------------------------------------------


  Total energy components:
  | Sum of eigenvalues            :        -180.96102593 Ha       -4924.20005598 eV
  | XC energy correction          :         -42.64609409 Ha       -1160.45926357 eV
  | XC potential correction       :          54.82911186 Ha        1491.97604467 eV
  | Free-atom electrostatic energy:        -146.79123760 Ha       -3994.39280761 eV
  | Hartree energy correction     :          -7.92073976 Ha        -215.53429508 eV
  | vdW energy correction         :          -0.00325342 Ha          -0.08852996 eV
  | Entropy correction            :           0.00000000 Ha           0.00000000 eV
  | ---------------------------
  | Total energy                  :        -323.49323892 Ha       -8802.69890754 eV
  | Total energy, T -> 0          :        -323.49323892 Ha       -8802.69890754 eV  <-- do not rely on this value for anything but (periodic) metals
  | Electronic free energy        :        -323.49323892 Ha       -8802.69890754 eV

  Derived energy quantities:
  | Kinetic energy                :         322.61266083 Ha        8778.73715852 eV
  | Electrostatic energy          :        -603.45655226 Ha      -16420.88827251 eV
  | Energy correction for multipole
  | error in Hartree potential    :           0.04076343 Ha           1.10922950 eV
  | Sum of eigenvalues per atom                           :        -378.78461969 eV
  | Total energy (T->0) per atom                          :        -677.13068520 eV  <-- do not rely on this value for anything but (periodic) metals
  | Electronic free energy per atom                       :        -677.13068520 eV

  atomic forces [eV/Ang]:
  -----------------------
  atom #    1
   Hellmann-Feynman              :  0.116614E+01  0.174988E+00  0.157365E+01
   Ionic forces                  :  0.000000E+00  0.000000E+00  0.000000E+00
   Multipole                     :  0.187455E+00  0.221847E+00 -0.239284E+00
   Pulay + GGA                   : -0.127435E+01  0.258232E-01 -0.148627E+01
   Van der Waals                 :  0.187006E-02  0.106201E-02 -0.106792E-02
   ----------------------------------------------------------------
   Total forces(   1)            :  0.811156E-01  0.423720E+00 -0.152971E+00
  atom #    2
   Hellmann-Feynman              :  0.390340E+00 -0.437995E-01  0.289393E+00
   Ionic forces                  :  0.000000E+00  0.000000E+00  0.000000E+00
   Multipole                     :  0.155450E+00  0.221972E-01 -0.291150E-01
   Pulay + GGA                   : -0.129786E+00  0.393819E-02  0.234783E-01
   Van der Waals                 :  0.855395E-02 -0.342401E-02 -0.176272E-02
   ----------------------------------------------------------------
   Total forces(   2)            :  0.424558E+00 -0.210881E-01  0.281994E+00
  atom #    3
   Hellmann-Feynman              : -0.112076E+02  0.341215E+01  0.128755E+01
   Ionic forces                  :  0.000000E+00  0.000000E+00  0.000000E+00
   Multipole                     : -0.113707E+00  0.203665E+00 -0.680116E+00
   Pulay + GGA                   :  0.108989E+02 -0.347493E+01  0.249131E+00
   Van der Waals                 :  0.358140E-02 -0.524176E-02 -0.855571E-02
   ----------------------------------------------------------------
   Total forces(   3)            : -0.418773E+00  0.135640E+00  0.848012E+00
  atom #    4
   Hellmann-Feynman              :  0.425560E-01 -0.130127E+00 -0.273523E+00
   Ionic forces                  :  0.000000E+00  0.000000E+00  0.000000E+00
   Multipole                     :  0.433542E-01 -0.121111E-01 -0.906053E-01
   Pulay + GGA                   : -0.187441E+00 -0.724532E-01  0.118421E+00
   Van der Waals                 : -0.271291E-02 -0.616203E-02 -0.279451E-02
   ----------------------------------------------------------------
   Total forces(   4)            : -0.104244E+00 -0.220853E+00 -0.248502E+00
  atom #    5
   Hellmann-Feynman              :  0.736154E+00 -0.752300E-02 -0.759862E+00
   Ionic forces                  :  0.000000E+00  0.000000E+00  0.000000E+00
   Multipole                     :  0.404027E-01 -0.572373E-01 -0.133393E+00
   Pulay + GGA                   :  0.157133E-01  0.263272E+00 -0.287349E-01
   Van der Waals                 : -0.298355E-02  0.342096E-02 -0.155914E-02
   ----------------------------------------------------------------
   Total forces(   5)            :  0.789287E+00  0.201933E+00 -0.923549E+00
  atom #    6
   Hellmann-Feynman              : -0.261810E+00 -0.545174E+00  0.396174E+00
   Ionic forces                  :  0.000000E+00  0.000000E+00  0.000000E+00
   Multipole                     : -0.122171E+00  0.676880E+00  0.245166E+00
   Pulay + GGA                   :  0.450743E+00 -0.532659E+00 -0.645264E+00
   Van der Waals                 : -0.526134E-02  0.324141E-02 -0.493975E-03
   ----------------------------------------------------------------
   Total forces(   6)            :  0.615013E-01 -0.397711E+00 -0.441884E-02
  atom #    7
   Hellmann-Feynman              : -0.191674E+00 -0.445331E-01 -0.620418E-01
   Ionic forces                  :  0.000000E+00  0.000000E+00  0.000000E+00
   Multipole                     : -0.122837E+00  0.490312E-01  0.308488E-01
   Pulay + GGA                   :  0.119023E+00 -0.402893E-02 -0.184914E-01
   Van der Waals                 : -0.629386E-03  0.981344E-04  0.184412E-02
   ----------------------------------------------------------------
   Total forces(   7)            : -0.196118E+00  0.567323E-03 -0.478403E-01
  atom #    8
   Hellmann-Feynman              :  0.128179E+00 -0.676435E-01  0.997998E-01
   Ionic forces                  :  0.000000E+00  0.000000E+00  0.000000E+00
   Multipole                     :  0.117664E-01  0.656234E-01  0.128821E+00
   Pulay + GGA                   : -0.466657E-01 -0.419369E-01 -0.919001E-01
   Van der Waals                 : -0.262392E-02  0.113077E-01  0.120597E-02
   ----------------------------------------------------------------
   Total forces(   8)            :  0.906555E-01 -0.326493E-01  0.137927E+00
  atom #    9
   Hellmann-Feynman              :  0.109387E+00  0.629534E-01 -0.181231E+00
   Ionic forces                  :  0.000000E+00  0.000000E+00  0.000000E+00
   Multipole                     :  0.163636E-01  0.128020E+00 -0.800436E-02
   Pulay + GGA                   : -0.534528E-01 -0.621616E-01  0.690231E-01
   Van der Waals                 : -0.223131E-02  0.471873E-02  0.574305E-02
   ----------------------------------------------------------------
   Total forces(   9)            :  0.700662E-01  0.133530E+00 -0.114469E+00
  atom #   10
   Hellmann-Feynman              :  0.237268E+01  0.368477E+01  0.205095E+01
   Ionic forces                  :  0.000000E+00  0.000000E+00  0.000000E+00
   Multipole                     :  0.985316E-01 -0.917305E-01  0.191900E+00
   Pulay + GGA                   : -0.140294E+01 -0.251816E+01 -0.274480E+00
   Van der Waals                 :  0.330803E-02 -0.103107E-01 -0.118474E-02
   ----------------------------------------------------------------
   Total forces(  10)            :  0.107157E+01  0.106457E+01  0.196719E+01
  atom #   11
   Hellmann-Feynman              :  0.410000E+01 -0.236882E+01  0.141103E+02
   Ionic forces                  :  0.000000E+00  0.000000E+00  0.000000E+00
   Multipole                     :  0.168587E+00 -0.578924E+00  0.980168E+00
   Pulay + GGA                   : -0.354272E+01  0.358663E+01 -0.141512E+02
   Van der Waals                 : -0.112443E-02 -0.122074E-01  0.652703E-02
   ----------------------------------------------------------------
   Total forces(  11)            :  0.724739E+00  0.626677E+00  0.945812E+00
  atom #   12
   Hellmann-Feynman              : -0.603798E+01 -0.128232E+02  0.116133E+01
   Ionic forces                  :  0.000000E+00  0.000000E+00  0.000000E+00
   Multipole                     : -0.993418E+00 -0.152131E+01 -0.191594E-01
   Pulay + GGA                   :  0.570123E+01  0.131321E+02 -0.317134E+01
   Van der Waals                 :  0.386006E-03  0.601819E-02  0.482249E-02
   ----------------------------------------------------------------
   Total forces(  12)            : -0.132978E+01 -0.120647E+01 -0.202434E+01
  atom #   13
   Hellmann-Feynman              : -0.121984E+01 -0.639260E+00 -0.102564E+01
   Ionic forces                  :  0.000000E+00  0.000000E+00  0.000000E+00
   Multipole                     : -0.431317E-01  0.106468E+00 -0.742150E-01
   Pulay + GGA                   : -0.226941E-02 -0.181843E+00  0.430241E+00
   Van der Waals                 : -0.132600E-03  0.747873E-02 -0.272394E-02
   ----------------------------------------------------------------
   Total forces(  13)            : -0.126537E+01 -0.707157E+00 -0.672337E+00

  Timings for VdW correction (Tkatchenko-Scheffler 2009 or later):
  | CPU time:        0.091 s, Wall clock time:        0.092 s.
  Removing unitary transformations (pure translations, rotations) from forces on atoms.
  Atomic forces before filtering:
  | Net force on center of mass :  -0.791639E-03  0.714261E-03 -0.749469E-02 eV/A
  | Net torque on center of mass:   0.301235E-02 -0.967847E-03 -0.504045E-02 eV
  Atomic forces after filtering:
  | Net force on center of mass :  -0.356812E-15 -0.892031E-16 -0.178406E-15 eV/A
  | Net torque on center of mass:   0.000000E+00 -0.566451E-15  0.377634E-15 eV

  Energy and forces in a compact form:
  | Total energy uncorrected      :         -0.880269890753648E+04 eV
  | Total energy corrected        :         -0.880269890753648E+04 eV  <-- do not rely on this value for anything but (periodic) metals
  | Electronic free energy        :         -0.880269890753648E+04 eV
  Total atomic forces (unitary forces cleaned) [eV/Ang]:
  |   1          0.811613828071983E-01          0.423733319009374E+00         -0.152419750164807E+00
  |   2          0.424603491981663E+00         -0.208688252001248E-01          0.282486222206187E+00
  |   3         -0.418803007073014E+00          0.135459684044918E+00          0.848589287270286E+00
  |   4         -0.104419432394545E+00         -0.220960515864286E+00         -0.248002331177561E+00
  |   5          0.789416085302188E+00          0.201733794046557E+00         -0.922904746262627E+00
  |   6          0.613488436670609E-01         -0.397737513106541E+00         -0.393396697391106E-02
  |   7         -0.196274258319462E+00          0.336831828263341E-03         -0.472985602648392E-01
  |   8          0.905562388523274E-01         -0.325315386891614E-01          0.138391468262782E+00
  |   9          0.697173363141775E-01          0.133534904555226E+00         -0.114070004975133E+00
  |  10          0.107190285265391E+01          0.106456577823396E+01          0.196785324793473E+01
  |  11          0.725180545838017E+00          0.626810309431849E+00          0.946483641250227E+00
  |  12         -0.132932929926369E+01         -0.120665507953550E+01         -0.202357206513101E+01
  |  13         -0.126506078036584E+01         -0.707421148754531E+00         -0.671602441974325E+00

  ------------------------------------ 
  Start decomposition of the XC Energy 
  ------------------------------------ 
  X and C from original XC functional choice 
  Hartree-Fock Energy :          0.000000000 Ha              0.000000000 eV
  X Energy            :        -41.043152015 Ha          -1116.840990569 eV
  C Energy            :         -1.602942070 Ha            -43.618273005 eV
  Total XC Energy     :        -42.646094085 Ha          -1160.459263574 eV
  ------------------------------------ 
  LDA X and C from self-consistent density 
  X Energy LDA        :        -37.264969699 Ha          -1014.031418854 eV
  C Energy LDA        :         -3.139408286 Ha            -85.427645984 eV
  ------------------------------------ 
  End decomposition of the XC Energy 
  ------------------------------------ 

------------------------------------------------------------

------------------------------------------------------------------------------
  Final output of selected total energy values:

  The following output summarizes some interesting total energy values
  at the end of a run (AFTER all relaxation, molecular dynamics, etc.).

  | Total energy of the DFT / Hartree-Fock s.c.f. calculation      :          -8802.698907536 eV
  | Final zero-broadening corrected energy (caution - metals only) :          -8802.698907536 eV
  | For reference only, the value of 1 Hartree used in FHI-aims is :             27.211384500 eV

  Before relying on these values, please be sure to understand exactly which
  total energy value is referred to by a given number. Different objects may
  all carry the same name 'total energy'. Definitions:

  Total energy of the DFT / Hartree-Fock s.c.f. calculation:
  | Note that this energy does not include ANY quantities calculated after the
  | s.c.f. cycle, in particular not ANY RPA, MP2, etc. many-body perturbation terms.

  Final zero-broadening corrected energy:
  | For metallic systems only, a broadening of the occupation numbers at the Fermi
  | level can be extrapolated back to zero broadening by an electron-gas inspired
  | formula. For all systems that are not real metals, this value can be
  | meaningless and should be avoided.

------------------------------------------------------------------------------
  Methods described in the following list of references were used in this FHI-aims run.
  If you publish the results, please make sure to cite these reference if they apply.
  FHI-aims is an academic code, and for our developers (often, Ph.D. students
  and postdocs), scientific credit in the community is essential.
  Thank you for helping us!

  For any use of FHI-aims, please cite:

    Volker Blum, Ralf Gehrke, Felix Hanke, Paula Havu, Ville Havu,
    Xinguo Ren, Karsten Reuter, and Matthias Scheffler
    'Ab initio molecular simulations with numeric atom-centered orbitals'
    Computer Physics Communications 180, 2175-2196 (2009)
    http://dx.doi.org/10.1016/j.cpc.2009.06.022


  The scalable eigensolver library ELPA was used in your run.
  ELPA is essential especially for large systems on hundreds or thousands of CPUs.
  For ELPA, please cite:

    Andreas Marek, Volker Blum, Rainer Johanni, Ville Havu, Bruno Lang,
    Thomas Auckenthaler, Alexander Heinecke, Hans-Joachim Bungartz, and Hermann Lederer,
    'The ELPA Library - Scalable Parallel Eigenvalue Solutions
    for Electronic Structure Theory and Computational Science'
    The Journal of Physics: Condensed Matter 26, 213201 (2014).
    http://dx.doi.org/10.1088/0953-8984/26/21/213201


  The ELSI infrastructure was used in your run to solve the Kohn-Sham electronic structure.
  Please check out http://elsi-interchange.org to learn more.
  If scalability is important for your project, please acknowledge ELSI by citing:

    V. W-z. Yu, F. Corsetti, A. Garcia, W. P. Huhn, M. Jacquelin, W. Jia,
    B. Lange, L. Lin, J. Lu, W. Mi, A. Seifitokaldani, A. Vazquez-Mayagoitia,
    C. Yang, H. Yang, and V. Blum
    'ELSI: A unified software interface for Kohn-Sham electronic structure solvers'
    Computer Physics Communications 222, 267-285 (2018).
    http://dx.doi.org/10.1016/j.cpc.2017.09.007


  For the real-space grid partitioning and parallelization used in this calculation, please cite:

    Ville Havu, Volker Blum, Paula Havu, and Matthias Scheffler,
    'Efficient O(N) integration for all-electron electronic structure calculation'
    'using numerically tabulated basis functions'
    Journal of Computational Physics 228, 8367-8379 (2009).
    http://dx.doi.org/10.1016/j.jcp.2009.08.008

  Of course, there are many other important community references, e.g., those cited in the
  above references. Our list is limited to references that describe implementations in the
  FHI-aims code. The reason is purely practical (length of this list) - please credit others as well.

------------------------------------------------------------
          Leaving FHI-aims.
          Date     :  20200710, Time     :  144822.792

          Computational steps:
          | Number of self-consistency cycles          :           16
          | Number of SCF (re)initializations          :            1

          Detailed time accounting                     :  max(cpu_time)    wall_clock(cpu1)
          | Total time                                 :       22.900 s          22.987 s
          | Preparation time                           :        0.151 s           0.154 s
          | Boundary condition initalization           :        0.000 s           0.000 s
          | Grid partitioning                          :        0.115 s           0.120 s
          | Preloading free-atom quantities on grid    :        0.002 s           0.003 s
          | Free-atom superposition energy             :        0.085 s           0.084 s
          | Total time for integrations                :        8.695 s           8.714 s
          | Total time for solution of K.-S. equations :        0.037 s           0.037 s
          | Total time for density & force components  :        7.247 s           7.257 s
          | Total time for mixing                      :        0.223 s           0.224 s
          | Total time for Hartree multipole update    :        0.141 s           0.143 s
          | Total time for Hartree multipole sum       :        5.797 s           5.808 s
          | Total time for total energy evaluation     :        0.003 s           0.003 s
          | Total time for vdW correction              :        0.091 s           0.092 s

          Partial memory accounting:
          | Residual value for overall tracked memory usage across tasks :           0.000 MB (should be 0.000 MB)
          | Peak values for overall tracked memory usage (after allocating hessian_basis_wave):
          |   Minimum:        1.622 MB (on task 1)
          |   Maximum:        1.622 MB (on task 1)
          |   Average:        1.622 MB
          | Largest tracked array allocation (hessian_basis_wave):
          |   Minimum:        0.794 MB (on task 1)
          |   Maximum:        0.794 MB (on task 1)
          |   Average:        0.794 MB
          Note:  These values currently only include a subset of arrays which are explicitly tracked.
          The "true" memory usage will be greater.

          Have a nice day.
------------------------------------------------------------
