  MPI-parallelism will be employed.
------------------------------------------------------------
          Invoking FHI-aims ...
          Version 171221_1
          Compiled on 2019/09/09 at 14:39:39 on host puhti-login2.bullx.

          When using FHI-aims, please cite the following reference:

          Volker Blum, Ralf Gehrke, Felix Hanke, Paula Havu,
          Ville Havu, Xinguo Ren, Karsten Reuter, and Matthias Scheffler,
          'Ab Initio Molecular Simulations with Numeric Atom-Centered Orbitals',
          Computer Physics Communications 180, 2175-2196 (2009)

          For any questions about FHI-aims, please visit the aimsclub website
          with its forums and wiki. Contributions to both the forums and the
          wiki are warmly encouraged - they are for you, and everyone is welcome there.

------------------------------------------------------------



  Date     :  20200710, Time     :  151459.866
  Time zero on CPU 1             :   0.113820000000000E-01  s.
  Internal wall clock time zero  :           363626099.866  s.

  FHI-aims created a unique identifier for this run for later identification
  aims_uuid : DAA7A94F-051B-4BE2-A2F6-71FAA7A9AFC8

  Using        1 parallel tasks.
  Task        0 on host r18c42.bullx reporting.

  Performing system and environment tests:
  | Environment variable OMP_NUM_THREADS correctly set to 1.
  | Stacksize not measured: no C compiler
  | Checking for scalapack...
  | Testing pdtran()...
  | All pdtran() tests passed.

  Obtaining array dimensions for all initial allocations:
  
  -----------------------------------------------------------------------
  Parsing control.in (first pass over file, find array dimensions only).
  The contents of control.in will be repeated verbatim below
  unless switched off by setting 'verbatim_writeout .false.' .
  in the first line of control.in .
  -----------------------------------------------------------------------
  
  #########################################################################################
  #
  #  Volker Blum, FHI 2009 : Test run input file control.in for simple H2O
  #
  #########################################################################################
  #
  #  Physical model
  #
    xc                 pbe
    vdw_correction_hirshfeld
    spin               none
    relativistic       none
    charge             0.
  #
  #  SCF convergence
  #
    occupation_type    gaussian 0.01
    mixer              pulay
      n_max_pulay        10
      charge_mix_param   0.2
    sc_accuracy_rho    1E-5
    sc_accuracy_eev    1E-3
    sc_accuracy_etot   1E-6
    sc_accuracy_forces 1E-4
    sc_iter_limit      100
  #
  #  Relaxation
  #
  #  relax_geometry   bfgs 1.e-3
  #
  ################################################################################
  #
  #  FHI-aims code project
  #  VB, Fritz-Haber Institut, 2009
  #
  #  Suggested "light" defaults for H atom (to be pasted into control.in file)
  #  Be sure to double-check any results obtained with these settings for post-processing,
  #  e.g., with the "tight" defaults and larger basis sets.
  #
  ################################################################################
    species        H
  #     global species definitions
      nucleus             1
      mass                1.00794
  #
      l_hartree           4
  #
      cut_pot             3.5  1.5  1.0
      basis_dep_cutoff    1e-4
  #
      radial_base         24 5.0
      radial_multiplier   1
      angular_grids       specified
        division   0.2421   50
        division   0.3822  110
        division   0.4799  194
        division   0.5341  302
  #      division   0.5626  434
  #      division   0.5922  590
  #      division   0.6542  770
  #      division   0.6868 1202
  #      outer_grid  770
        outer_grid  302
  ################################################################################
  #
  #  Definition of "minimal" basis
  #
  ################################################################################
  #     valence basis states
      valence      1  s   1.
  #     ion occupancy
      ion_occ      1  s   0.5
  ################################################################################
  #
  #  Suggested additional basis functions. For production calculations,
  #  uncomment them one after another (the most important basis functions are
  #  listed first).
  #
  #  Basis constructed for dimers: 0.5 A, 0.7 A, 1.0 A, 1.5 A, 2.5 A
  #
  ################################################################################
  #  "First tier" - improvements: -1014.90 meV to -62.69 meV
       hydro 2 s 2.1
       hydro 2 p 3.5
  #  "Second tier" - improvements: -12.89 meV to -1.83 meV
  #     hydro 1 s 0.85
  #     hydro 2 p 3.7
  #     hydro 2 s 1.2
  #     hydro 3 d 7
  #  "Third tier" - improvements: -0.25 meV to -0.12 meV
  #     hydro 4 f 11.2
  #     hydro 3 p 4.8
  #     hydro 4 d 9
  #     hydro 3 s 3.2
  ################################################################################
  #
  #  FHI-aims code project
  #  VB, Fritz-Haber Institut, 2009
  #
  #  Suggested "light" defaults for C atom (to be pasted into control.in file)
  #  Be sure to double-check any results obtained with these settings for post-processing,
  #  e.g., with the "tight" defaults and larger basis sets.
  #
  ################################################################################
    species        C
  #     global species definitions
      nucleus             6
      mass                12.0107
  #
      l_hartree           4
  #
      cut_pot             3.5  1.5  1.0
      basis_dep_cutoff    1e-4
  #
      radial_base         34 5.0
      radial_multiplier   1
      angular_grids specified
        division   0.3326   50
        division   0.5710  110
        division   0.7727  194
        division   0.8772  302
  #      division   0.9334  434
  #      division   0.9625  590
  #      division   0.9924  770
  #      division   1.0230  974
  #      division   1.4589 1202
  #     outer_grid  974
       outer_grid 302
  ################################################################################
  #
  #  Definition of "minimal" basis
  #
  ################################################################################
  #     valence basis states
      valence      2  s   2.
      valence      2  p   2.
  #     ion occupancy
      ion_occ      2  s   1.
      ion_occ      2  p   1.
  ################################################################################
  #
  #  Suggested additional basis functions. For production calculations,
  #  uncomment them one after another (the most important basis functions are
  #  listed first).
  #
  #  Constructed for dimers: 1.0 A, 1.25 A, 1.5 A, 2.0 A, 3.0 A
  #
  ################################################################################
  #  "First tier" - improvements: -1214.57 meV to -155.61 meV
       hydro 2 p 1.7
       hydro 3 d 6
       hydro 2 s 4.9
  #  "Second tier" - improvements: -67.75 meV to -5.23 meV
  #     hydro 4 f 9.8
  #     hydro 3 p 5.2
  #     hydro 3 s 4.3
  #     hydro 5 g 14.4
  #     hydro 3 d 6.2
  #  "Third tier" - improvements: -2.43 meV to -0.60 meV
  #     hydro 2 p 5.6
  #     hydro 2 s 1.4
  #     hydro 3 d 4.9
  #     hydro 4 f 11.2
  #  "Fourth tier" - improvements: -0.39 meV to -0.18 meV
  #     hydro 2 p 2.1
  #     hydro 5 g 16.4
  #     hydro 4 d 13.2
  #     hydro 3 s 13.6
  #     hydro 4 f 17.6
  #  Further basis functions - improvements: -0.08 meV and below
  #     hydro 3 s 2
  #     hydro 3 p 6
  #     hydro 4 d 20
  ################################################################################
  #
  #  FHI-aims code project
  #  VB, Fritz-Haber Institut, 2009
  #
  #  Suggested "light" defaults for N atom (to be pasted into control.in file)
  #  Be sure to double-check any results obtained with these settings for post-processing,
  #  e.g., with the "tight" defaults and larger basis sets.
  #
  ################################################################################
    species        N
  #     global species definitions
      nucleus             7
      mass                14.0067
  #
      l_hartree           4
  #
      cut_pot             3.5  1.5  1.0
      basis_dep_cutoff    1e-4
  #
      radial_base         35 5.0
      radial_multiplier   1
      angular_grids       specified
        division   0.2599   50
        division   0.4601  110
        division   0.5885  194
        division   0.6503  302
  #      division   0.6939  434
  #      division   0.7396  590
  #      division   0.7632  770
  #      division   0.8122  974
  #      division   1.1604 1202
  #      outer_grid  974
        outer_grid  302
  ################################################################################
  #
  #  Definition of "minimal" basis
  #
  ################################################################################
  #     valence basis states
      valence      2  s   2.
      valence      2  p   3.
  #     ion occupancy
      ion_occ      2  s   1.
      ion_occ      2  p   2.
  ################################################################################
  #
  #  Suggested additional basis functions. For production calculations,
  #  uncomment them one after another (the most important basis functions are
  #  listed first).
  #
  #  Constructed for dimers: 1.0 A, 1.1 A, 1.5 A, 2.0 A, 3.0 A
  #
  ################################################################################
  #  "First tier" - improvements: -1193.42 meV to -220.60 meV
       hydro 2 p 1.8
       hydro 3 d 6.8
       hydro 3 s 5.8
  #  "Second tier" - improvements: -80.21 meV to -6.86 meV
  #     hydro 4 f 10.8
  #     hydro 3 p 5.8
  #     hydro 1 s 0.8
  #     hydro 5 g 16
  #     hydro 3 d 4.9
  #  "Third tier" - improvements: -4.29 meV to -0.53 meV
  #     hydro 3 s 16
  #     ionic 2 p auto
  #     hydro 3 d 6.6
  #     hydro 4 f 11.6
  #  "Fourth tier" - improvements: -0.75 meV to -0.25 meV
  #     hydro 2 p 4.5
  #     hydro 2 s 2.4
  #     hydro 5 g 14.4
  #     hydro 4 d 14.4
  #     hydro 4 f 16.8
  # Further basis functions - -0.21 meV and below
  #     hydro 3 p 14.8
  #     hydro 3 s 4.4
  #     hydro 3 d 19.6
  #     hydro 5 g 12.8
  ################################################################################
  #
  #  FHI-aims code project
  #  VB, Fritz-Haber Institut, 2009
  #
  #  Suggested "light" defaults for O atom (to be pasted into control.in file)
  #  Be sure to double-check any results obtained with these settings for post-processing,
  #  e.g., with the "tight" defaults and larger basis sets.
  #
  ################################################################################
    species        O
  #     global species definitions
      nucleus             8
      mass                15.9994
  #
      l_hartree           4
  #
      cut_pot             3.5  1.5  1.0
      basis_dep_cutoff    1e-4
  #
      radial_base         36 5.0
      radial_multiplier   1
       angular_grids specified
        division   0.2659   50
        division   0.4451  110
        division   0.6052  194
        division   0.7543  302
  #      division   0.8014  434
  #      division   0.8507  590
  #      division   0.8762  770
  #      division   0.9023  974
  #      division   1.2339 1202
  #      outer_grid 974
        outer_grid 302
  ################################################################################
  #
  #  Definition of "minimal" basis
  #
  ################################################################################
  #     valence basis states
      valence      2  s   2.
      valence      2  p   4.
  #     ion occupancy
      ion_occ      2  s   1.
      ion_occ      2  p   3.
  ################################################################################
  #
  #  Suggested additional basis functions. For production calculations,
  #  uncomment them one after another (the most important basis functions are
  #  listed first).
  #
  #  Constructed for dimers: 1.0 A, 1.208 A, 1.5 A, 2.0 A, 3.0 A
  #
  ################################################################################
  #  "First tier" - improvements: -699.05 meV to -159.38 meV
       hydro 2 p 1.8
       hydro 3 d 7.6
       hydro 3 s 6.4
  #  "Second tier" - improvements: -49.91 meV to -5.39 meV
  #     hydro 4 f 11.6
  #     hydro 3 p 6.2
  #     hydro 3 d 5.6
  #     hydro 5 g 17.6
  #     hydro 1 s 0.75
  #  "Third tier" - improvements: -2.83 meV to -0.50 meV
  #     ionic 2 p auto
  #     hydro 4 f 10.8
  #     hydro 4 d 4.7
  #     hydro 2 s 6.8
  #  "Fourth tier" - improvements: -0.40 meV to -0.12 meV
  #     hydro 3 p 5
  #     hydro 3 s 3.3
  #     hydro 5 g 15.6
  #     hydro 4 f 17.6
  #     hydro 4 d 14
  # Further basis functions - -0.08 meV and below
  #     hydro 3 s 2.1
  #     hydro 4 d 11.6
  #     hydro 3 p 16
  #     hydro 2 s 17.2
  
  -----------------------------------------------------------------------
  Completed first pass over input file control.in .
  -----------------------------------------------------------------------
  
  
  -----------------------------------------------------------------------
  Parsing geometry.in (first pass over file, find array dimensions only).
  The contents of geometry.in will be repeated verbatim below
  unless switched off by setting 'verbatim_writeout .false.' .
  in the first line of geometry.in .
  -----------------------------------------------------------------------
  
  atom  0.00000 0.00000 0.00000 C
  atom  1.09300 0.00000 0.00000 H
  atom  -0.47961 0.00000 -1.41207 N
  atom  -0.63324 -0.96552 -1.70532 H
  atom  -1.34996 0.52550 -1.46165 H
  atom  -0.49584 1.26211 0.72868 C
  atom  -1.58789 1.28919 0.74431 H
  atom  -0.13407 1.27425 1.75947 H
  atom  -0.13407 2.16087 0.22380 H
  atom  -0.39425 -1.28861 0.74398 C
  atom  -0.10189 -1.56493 1.88303 O
  atom  -1.10210 -2.13717 0.06896 O
  atom  -0.45329 -2.85972 0.02480 H
  
  -----------------------------------------------------------------------
  Completed first pass over input file geometry.in .
  -----------------------------------------------------------------------
  

  Basic array size parameters:
  | Number of species                 :        4
  | Number of atoms                   :       13
  | Max. basis fn. angular momentum   :        2
  | Max. atomic/ionic basis occupied n:        2
  | Max. number of basis fn. types    :        2
  | Max. radial fns per species/type  :        3
  | Max. logarithmic grid size        :     1301
  | Max. radial integration grid size :       36
  | Max. angular integration grid size:      302
  | Max. angular grid division number :        8
  | Radial grid for Hartree potential :     1301
  | Number of spin channels           :        1

------------------------------------------------------------
          Reading file control.in.
------------------------------------------------------------
  XC: Using PBE gradient-corrected functionals.
  Spin treatment: No spin polarisation.
  Non-relativistic treatment of kinetic energy.
  Charge =   0.000000E+00: Neutral system requested explicitly.
  Occupation type: Gaussian broadening, width =   0.100000E-01 eV.
  Using pulay charge density mixing.
  Pulay mixing - number of memorized iterations:   10
  Charge density mixing - mixing parameter:     0.2000
  Convergence accuracy of self-consistent charge density:  0.1000E-04
  Convergence accuracy of sum of eigenvalues:  0.1000E-02
  Convergence accuracy of total energy:  0.1000E-05
  Convergence accuracy of forces:  0.1000E-03
  Maximum number of s.-c. iterations  :   100
 
  Reading configuration options for species H                   .
  | Found nuclear charge :   1.0000
  | Found atomic mass :    1.00794000000000      amu
  | Found l_max for Hartree potential  :   4
  | Found cutoff potl. onset [A], width [A], scale factor :    3.50000    1.50000    1.00000
  | Threshold for basis-dependent cutoff potential is   0.100000E-03
  | Found data for basic radial integration grid :    24 points, outermost radius =    5.000 A
  | Found multiplier for basic radial grid :   1
  | Found angular grid specification: user-specified.
  | Specified grid contains     5 separate shells.
  | Check grid settings after all constraints further below.
  | Found free-atom valence shell :  1 s   1.000
  | No ionic wave fns used. Skipping ion_occ.
  | Found hydrogenic basis function :  2 s   2.100
  | Found hydrogenic basis function :  2 p   3.500
  Species H                   : Missing cutoff potential type.
  Defaulting to exp(1/x)/(1-x)^2 type cutoff potential.
  Species H : No 'logarithmic' tag. Using default grid for free atom:
  | Default logarithmic grid data [bohr] : 0.1000E-03 0.1000E+03 0.1012E+01
  Species H : On-site basis accuracy parameter (for Gram-Schmidt orthonormalisation) not specified.
  Using default value basis_acc =  0.1000000E-03.
  Species H                   : Using default innermost maximum threshold i_radial=  2 for radial functions.
  Species H                   : Default cutoff onset for free atom density etc. : 0.35000000E+01 AA.
  Species H                   : Basic radial grid will be enhanced according to radial_multiplier =   1, to contain    24 grid points.
 
  Reading configuration options for species C                   .
  | Found nuclear charge :   6.0000
  | Found atomic mass :    12.0107000000000      amu
  | Found l_max for Hartree potential  :   4
  | Found cutoff potl. onset [A], width [A], scale factor :    3.50000    1.50000    1.00000
  | Threshold for basis-dependent cutoff potential is   0.100000E-03
  | Found data for basic radial integration grid :    34 points, outermost radius =    5.000 A
  | Found multiplier for basic radial grid :   1
  | Found angular grid specification: user-specified.
  | Specified grid contains     5 separate shells.
  | Check grid settings after all constraints further below.
  | Found free-atom valence shell :  2 s   2.000
  | Found free-atom valence shell :  2 p   2.000
  | No ionic wave fns used. Skipping ion_occ.
  | No ionic wave fns used. Skipping ion_occ.
  | Found hydrogenic basis function :  2 p   1.700
  | Found hydrogenic basis function :  3 d   6.000
  | Found hydrogenic basis function :  2 s   4.900
  Species C                   : Missing cutoff potential type.
  Defaulting to exp(1/x)/(1-x)^2 type cutoff potential.
  Species C : No 'logarithmic' tag. Using default grid for free atom:
  | Default logarithmic grid data [bohr] : 0.1000E-03 0.1000E+03 0.1012E+01
  Species C : On-site basis accuracy parameter (for Gram-Schmidt orthonormalisation) not specified.
  Using default value basis_acc =  0.1000000E-03.
  Species C                   : Using default innermost maximum threshold i_radial=  2 for radial functions.
  Species C                   : Default cutoff onset for free atom density etc. : 0.35000000E+01 AA.
  Species C                   : Basic radial grid will be enhanced according to radial_multiplier =   1, to contain    34 grid points.
 
  Reading configuration options for species N                   .
  | Found nuclear charge :   7.0000
  | Found atomic mass :    14.0067000000000      amu
  | Found l_max for Hartree potential  :   4
  | Found cutoff potl. onset [A], width [A], scale factor :    3.50000    1.50000    1.00000
  | Threshold for basis-dependent cutoff potential is   0.100000E-03
  | Found data for basic radial integration grid :    35 points, outermost radius =    5.000 A
  | Found multiplier for basic radial grid :   1
  | Found angular grid specification: user-specified.
  | Specified grid contains     5 separate shells.
  | Check grid settings after all constraints further below.
  | Found free-atom valence shell :  2 s   2.000
  | Found free-atom valence shell :  2 p   3.000
  | No ionic wave fns used. Skipping ion_occ.
  | No ionic wave fns used. Skipping ion_occ.
  | Found hydrogenic basis function :  2 p   1.800
  | Found hydrogenic basis function :  3 d   6.800
  | Found hydrogenic basis function :  3 s   5.800
  Species N                   : Missing cutoff potential type.
  Defaulting to exp(1/x)/(1-x)^2 type cutoff potential.
  Species N : No 'logarithmic' tag. Using default grid for free atom:
  | Default logarithmic grid data [bohr] : 0.1000E-03 0.1000E+03 0.1012E+01
  Species N : On-site basis accuracy parameter (for Gram-Schmidt orthonormalisation) not specified.
  Using default value basis_acc =  0.1000000E-03.
  Species N                   : Using default innermost maximum threshold i_radial=  2 for radial functions.
  Species N                   : Default cutoff onset for free atom density etc. : 0.35000000E+01 AA.
  Species N                   : Basic radial grid will be enhanced according to radial_multiplier =   1, to contain    35 grid points.
 
  Reading configuration options for species O                   .
  | Found nuclear charge :   8.0000
  | Found atomic mass :    15.9994000000000      amu
  | Found l_max for Hartree potential  :   4
  | Found cutoff potl. onset [A], width [A], scale factor :    3.50000    1.50000    1.00000
  | Threshold for basis-dependent cutoff potential is   0.100000E-03
  | Found data for basic radial integration grid :    36 points, outermost radius =    5.000 A
  | Found multiplier for basic radial grid :   1
  | Found angular grid specification: user-specified.
  | Specified grid contains     5 separate shells.
  | Check grid settings after all constraints further below.
  | Found free-atom valence shell :  2 s   2.000
  | Found free-atom valence shell :  2 p   4.000
  | No ionic wave fns used. Skipping ion_occ.
  | No ionic wave fns used. Skipping ion_occ.
  | Found hydrogenic basis function :  2 p   1.800
  | Found hydrogenic basis function :  3 d   7.600
  | Found hydrogenic basis function :  3 s   6.400
  Species O                   : Missing cutoff potential type.
  Defaulting to exp(1/x)/(1-x)^2 type cutoff potential.
  Species O : No 'logarithmic' tag. Using default grid for free atom:
  | Default logarithmic grid data [bohr] : 0.1000E-03 0.1000E+03 0.1012E+01
  Species O : On-site basis accuracy parameter (for Gram-Schmidt orthonormalisation) not specified.
  Using default value basis_acc =  0.1000000E-03.
  Species O                   : Using default innermost maximum threshold i_radial=  2 for radial functions.
  Species O                   : Default cutoff onset for free atom density etc. : 0.35000000E+01 AA.
  Species O                   : Basic radial grid will be enhanced according to radial_multiplier =   1, to contain    36 grid points.
 
  Finished reading input file 'control.in'. Consistency checks are next.
 
  MPI_IN_PLACE appears to work with this MPI implementation.
  | Keeping use_mpi_in_place .true. (see manual).
  Target number of points in a grid batch is not set. Defaulting to  100
  Method for grid partitioning is not set. Defaulting to parallel hash+maxmin partitioning.
  Batch size limit is not set. Defaulting to    200
  By default, will store active basis functions for each batch.
  If in need of memory, prune_basis_once .false. can be used to disable this option.
  communication_type for Hartree potential was not specified.
  Defaulting to calc_hartree .
  Pulay mixer: Number of initial linear mixing iterations not set.
  Defaulting to    0 iterations.
  Work space size for distributed Hartree potential not set.
  Defaulting to   0.200000E+03 MB.
  Algorithm-dependent basis array size parameters:
  | n_max_pulay                         :       10
  Presetting      1001 iterations before the initial mixing cycle
  is restarted anyway using the sc_init_iter criterion / keyword.
  Presetting a factor      1.000 between actual scf density residual
  and density convergence criterion sc_accuracy_rho below which sc_init_iter
  takes no effect.
  Geometry relaxation not requested: no relaxation will be performed.
  Handling of forces: Unphysical translation and rotation will be removed from forces.
  No accuracy limit for integral partition fn. given. Defaulting to  0.1000E-14.
  No threshold value for u(r) in integrations given. Defaulting to  0.1000E-05.
  No accuracy for occupation numbers given. Defaulting to  0.1000E-12.
  No threshold value for occupation numbers given. Defaulting to  0.0000E+00.
  No accuracy for fermi level given. Defaulting to  0.1000E-19.
  Maximum # of iterations to find E_F not set. Defaulting to  200.
  Preferred method for the eigenvalue solver ('KS_method') not specified in 'control.in'.
  Defaulting to serial version, 'lapack_fast'.
  Will not use alltoall communication since running on < 1024 CPUs.
  Threshold for basis singularities not set.
  Default threshold for basis singularities:  0.1000E-04
  partition_type (choice of integration weights) for integrals was not specified.
  | Using a version of the partition function of Stratmann and coworkers ('stratmann_smoother').
  | At each grid point, the set of atoms used to build the partition table is smoothly restricted to
  | only those atoms whose free-atom density would be non-zero at that grid point.
  Partitioning for Hartree potential was not defined. Using partition_type for integrals.
  | Adjusted default value of keyword multip_moments_threshold to:       0.10000000E-11
  | This value may affect high angular momentum components of the Hartree potential in periodic systems.
  No q(lm)/r^(l+1) cutoff set for long-range Hartree potential.
  | Using default value of  0.100000E-09 .
  | Verify using the multipole_threshold keyword.
  Defaulting to new monopole extrapolation.
  Density update method: automatic selection selected.
------------------------------------------------------------


------------------------------------------------------------
          Reading geometry description geometry.in.
------------------------------------------------------------
  Input structure read successfully.
  The structure contains       13 atoms,  and a total of         48.000 electrons.

  Input geometry:
  | No unit cell requested.
  | Atomic structure:
  |       Atom                x [A]            y [A]            z [A]
  |    1: Species C             0.00000000        0.00000000        0.00000000
  |    2: Species H             1.09300000        0.00000000        0.00000000
  |    3: Species N            -0.47961000        0.00000000       -1.41207000
  |    4: Species H            -0.63324000       -0.96552000       -1.70532000
  |    5: Species H            -1.34996000        0.52550000       -1.46165000
  |    6: Species C            -0.49584000        1.26211000        0.72868000
  |    7: Species H            -1.58789000        1.28919000        0.74431000
  |    8: Species H            -0.13407000        1.27425000        1.75947000
  |    9: Species H            -0.13407000        2.16087000        0.22380000
  |   10: Species C            -0.39425000       -1.28861000        0.74398000
  |   11: Species O            -0.10189000       -1.56493000        1.88303000
  |   12: Species O            -1.10210000       -2.13717000        0.06896000
  |   13: Species H            -0.45329000       -2.85972000        0.02480000
  |

  | The smallest distance between any two atoms is         0.97210237 AA.
  |
  | The first atom of this pair is atom number                     12 .
  | The second atom of this pair is atom number                    13 .

  Number of empty states per atom not set in control.in - providing a guess from actual geometry.
  | Total number of empty states used during s.c.f. cycle:       29
  If you use a very high smearing, use empty_states (per atom!) in control.in to increase this value.

  Structure-dependent array size parameters: 
  | Maximum number of distinct radial functions  :       21
  | Maximum number of basis functions            :      119
  | Number of Kohn-Sham states (occupied + empty):       53
------------------------------------------------------------

------------------------------------------------------------
          Preparing all fixed parts of the calculation.
------------------------------------------------------------
  Determining machine precision:
    2.225073858507201E-308
  Setting up grids for atomic and cluster calculations.

  Creating wave function, potential, and density for free atoms.

  Species: H

  List of occupied orbitals and eigenvalues:
    n    l              occ      energy [Ha]    energy [eV]
    1    0           1.0000        -0.237589        -6.4651


  Species: C

  List of occupied orbitals and eigenvalues:
    n    l              occ      energy [Ha]    energy [eV]
    1    0           2.0000       -10.038835      -273.1706
    2    0           2.0000        -0.502696       -13.6791
    2    1           2.0000        -0.191971        -5.2238


  Species: N

  List of occupied orbitals and eigenvalues:
    n    l              occ      energy [Ha]    energy [eV]
    1    0           2.0000       -14.128000      -384.4424
    2    0           2.0000        -0.681077       -18.5330
    2    1           3.0000        -0.259788        -7.0692


  Species: O

  List of occupied orbitals and eigenvalues:
    n    l              occ      energy [Ha]    energy [eV]
    1    0           2.0000       -18.898188      -514.2459
    2    0           2.0000        -0.878505       -23.9053
    2    1           4.0000        -0.331779        -9.0282

  Creating fixed part of basis set: Ionic, confined, hydrogenic.
 
  H                    hydrogenic:
 
  List of hydrogenic basis orbitals: 
    n    l      effective z      eigenvalue [eV]  inner max. [A]     outer max. [A]     outer radius [A]   
    2    0         2.100000       -14.9728           0.193243           1.317208           4.583499
    2    1         3.500000       -41.6669           0.602369           0.602369           3.723403
 
 
  C                    hydrogenic:
 
  List of hydrogenic basis orbitals: 
    n    l      effective z      eigenvalue [eV]  inner max. [A]     outer max. [A]     outer radius [A]   
    2    1         1.700000        -9.7616           1.230570           1.230570           4.607917
    3    2         6.000000       -54.4224           0.792453           0.792453           3.883070
    2    0         4.900000       -81.6679           0.082559           0.562749           3.078220
 
 
  N                    hydrogenic:
 
  List of hydrogenic basis orbitals: 
    n    l      effective z      eigenvalue [eV]  inner max. [A]     outer max. [A]     outer radius [A]   
    2    1         1.800000       -10.9749           1.177451           1.177451           4.573712
    3    2         6.800000       -69.9026           0.704619           0.704619           3.538137
    3    0         5.800000       -50.8545           0.067388           1.191934           4.250239
 
 
  O                    hydrogenic:
 
  List of hydrogenic basis orbitals: 
    n    l      effective z      eigenvalue [eV]  inner max. [A]     outer max. [A]     outer radius [A]   
    2    1         1.800000       -10.9749           1.164242           1.164242           4.578029
    3    2         7.600000       -87.3180           0.624125           0.624125           3.251020
    3    0         6.400000       -61.9207           0.061167           1.081902           4.001998
 

  Adding cutoff potential to free-atom effective potential.
  Creating atomic-like basis functions for current effective potential.

  Species H                   :

  List of atomic basis orbitals and eigenvalues:
    n    l      energy [Ha]    energy [eV]    outer radius [A]
    1    0        -0.237589        -6.4651       4.527807


  Species C                   :

  List of atomic basis orbitals and eigenvalues:
    n    l      energy [Ha]    energy [eV]    outer radius [A]
    1    0       -10.038835      -273.1706       1.934409
    2    0        -0.502696       -13.6791       4.496620
    2    1        -0.191971        -5.2238       4.551928


  Species N                   :

  List of atomic basis orbitals and eigenvalues:
    n    l      energy [Ha]    energy [eV]    outer radius [A]
    1    0       -14.128000      -384.4424       1.637919
    2    0        -0.681077       -18.5330       4.463241
    2    1        -0.259788        -7.0692       4.518138


  Species O                   :

  List of atomic basis orbitals and eigenvalues:
    n    l      energy [Ha]    energy [eV]    outer radius [A]
    1    0       -18.898188      -514.2459       1.415765
    2    0        -0.878505       -23.9053       4.413171
    2    1        -0.331779        -9.0282       4.522403

  Assembling full basis from fixed parts.
  | Species H :   atomic orbital   1 s accepted.
  | Species H :    hydro orbital   2 s accepted.
  | Species H :    hydro orbital   2 p accepted.
  | Species C :   atomic orbital   1 s accepted.
  | Species C :    hydro orbital   2 s accepted.
  | Species C :   atomic orbital   2 s accepted.
  | Species C :   atomic orbital   2 p accepted.
  | Species C :    hydro orbital   2 p accepted.
  | Species C :    hydro orbital   3 d accepted.
  | Species N :   atomic orbital   1 s accepted.
  | Species N :    hydro orbital   3 s accepted.
  | Species N :   atomic orbital   2 s accepted.
  | Species N :   atomic orbital   2 p accepted.
  | Species N :    hydro orbital   2 p accepted.
  | Species N :    hydro orbital   3 d accepted.
  | Species O :   atomic orbital   1 s accepted.
  | Species O :    hydro orbital   3 s accepted.
  | Species O :   atomic orbital   2 s accepted.
  | Species O :   atomic orbital   2 p accepted.
  | Species O :    hydro orbital   2 p accepted.
  | Species O :    hydro orbital   3 d accepted.
 
  Basis size parameters after reduction:
  | Total number of radial functions:       21
  | Total number of basis functions :      119
 
  Per-task memory consumption for arrays in subroutine allocate_ext:
  |           5.250512MB.
  Testing on-site integration grid accuracy.
  |  Species  Function  <phi|h_atom|phi> (log., in eV)  <phi|h_atom|phi> (rad., in eV)
           1        1                 -6.4663192853                 -6.4651273558
           1        2                 13.7111246313                 13.7170609718
           1        3                 25.2673269279                 25.2674696378
           2        4               -273.1705927641               -273.1705631568
           2        5                -10.7109323383                -10.7107120029
           2        6                 17.4381822266                 17.4352413244
           2        7                 -5.2255326521                 -5.2270484734
           2        8                  8.6835629259                  8.6603288385
           2        9                 27.4952418996                 27.4953360207
           3       10               -384.4424306495               -384.4423701208
           3       11                 12.5842251816                 12.5842222903
           3       12                -15.7264628251                -15.7264433455
           3       13                 -7.0696854293                 -7.0701769954
           3       14                  8.8090390882                  8.7901077751
           3       15                 35.9586762123                 35.9588528632
           4       16               -514.2458688638               -514.2457643834
           4       17                 15.1795651126                 15.1795290741
           4       18                -21.5359799773                -21.5360846186
           4       19                 -9.0283069236                 -9.0284644067
           4       20                  8.3027758564                  8.2834874195
           4       21                 45.8339351984                 45.8338762259

  Preparing densities etc. for the partition functions (integrals / Hartree potential).

  Preparations completed.
  max(cpu_time)          :      0.146 s.
  Wall clock time (cpu1) :      0.149 s.
------------------------------------------------------------

------------------------------------------------------------
          Begin self-consistency loop: Initialization.

          Date     :  20200710, Time     :  151500.028
------------------------------------------------------------

  Initializing index lists of integration centers etc. from given atomic structure:
  | Number of centers in hartree potential         :        13
  | Number of centers in hartree multipole         :        13
  | Number of centers in electron density summation:        13
  | Number of centers in basis integrals           :        13
  | Number of centers in integrals                 :        13
  | Number of centers in hamiltonian               :        13
  Partitioning the integration grid into batches with parallel hashing+maxmin method.
  | Number of batches:      959
  | Maximal batch size:     139
  | Minimal batch size:      66
  | Average batch size:      72.624
  | Standard deviation of batch sizes:      17.111

  Integration load balanced across     1 MPI tasks.
  Work distribution over tasks is as follows:
  Task     0 has      69646 integration points.
  Initializing partition tables, free-atom densities, potentials, etc. across the integration grid (initialize_grid_storage).
  | initialize_grid_storage: Actual outermost partition radius vs. multipole_radius_free
  | (-- VB: in principle, multipole_radius_free should be larger, hence this output)
  | Species        1: Confinement radius =              4.999999999999999 AA, multipole_radius_free =              5.054417573612229 AA.
  | Species        1: outer_partition_radius set to              5.054417573612229 AA .
  | Species        2: Confinement radius =              4.999999999999999 AA, multipole_radius_free =              5.019602836301480 AA.
  | Species        2: outer_partition_radius set to              5.019602836301480 AA .
  | Species        3: Confinement radius =              4.999999999999999 AA, multipole_radius_free =              5.043624274424571 AA.
  | Species        3: outer_partition_radius set to              5.043624274424571 AA .
  | Species        4: Confinement radius =              4.999999999999999 AA, multipole_radius_free =              5.048384829883283 AA.
  | Species        4: outer_partition_radius set to              5.048384829883283 AA .
  | Original list of interatomic distances with          13 x         13 entries is created.
  | Net number of integration points:    69646
  | of which are non-zero points    :    59488
  Renormalizing the initial density to the exact electron count on the 3D integration grid.
  | Initial density: Formal number of electrons (from input files) :      48.0000000000
  | Integrated number of electrons on 3D grid     :      47.9999694119
  | Charge integration error                      :      -0.0000305881
  | Normalization factor for density and gradient :       1.0000006373
  Obtaining max. number of non-zero basis functions in each batch (get_n_compute_maxes).
  | Maximal number of non-zero basis functions:      119 in task     0
  Selecting the method for density update.
  Loop over occupied states selected for charge density update.
  Allocating        0.050 MB for KS_eigenvector
  Integrating Hamiltonian matrix: batch-based integration.
  Time summed over all CPUs for integration: real work        0.489 s, elapsed        0.489 s
  Integrating overlap matrix.
  Time summed over all CPUs for integration: real work        0.211 s, elapsed        0.211 s

  Updating Kohn-Sham eigenvalues and eigenvectors using ELSI and the ELPA eigensolver.
  Overlap matrix is nonsingular
  | Lowest eigenvalue of overlap  :  0.55E-02
  | Highest eigenvalue of overlap :  0.62E+01
  Finished singularity check of overlap matrix
  | Time :     0.002 s
  Finished Cholesky decomposition
  | Time :     0.000 s
  Finished transformation to standard eigenproblem
  | Time :     0.000 s
  Starting LAPACK eigensolver
  Finished solving standard eigenproblem
  | Time :     0.002 s
  Finished back-transformation of eigenvectors
  | Time :     0.000 s

  Obtaining occupation numbers and chemical potential using ELSI.
  | Chemical potential (Fermi level):    -9.06888536eV
  Writing Kohn-Sham eigenvalues.

  State    Occupation    Eigenvalue [Ha]    Eigenvalue [eV]
      1       2.00000         -19.008221         -517.24000
      2       2.00000         -18.977543         -516.40521
      3       2.00000         -14.245798         -387.64789
      4       2.00000         -10.166823         -276.65333
      5       2.00000         -10.141268         -275.95793
      6       2.00000         -10.132130         -275.70928
      7       2.00000          -1.185611          -32.26213
      8       2.00000          -1.095928          -29.82172
      9       2.00000          -0.991634          -26.98373
     10       2.00000          -0.859939          -23.40012
     11       2.00000          -0.757781          -20.62028
     12       2.00000          -0.683653          -18.60316
     13       2.00000          -0.625885          -17.03121
     14       2.00000          -0.603047          -16.40973
     15       2.00000          -0.592917          -16.13410
     16       2.00000          -0.569371          -15.49336
     17       2.00000          -0.552955          -15.04667
     18       2.00000          -0.530386          -14.43253
     19       2.00000          -0.514598          -14.00293
     20       2.00000          -0.497047          -13.52533
     21       2.00000          -0.462020          -12.57221
     22       2.00000          -0.433009          -11.78278
     23       2.00000          -0.414738          -11.28561
     24       2.00000          -0.377462          -10.27126
     25       0.00000          -0.161601           -4.39739
     26       0.00000          -0.061598           -1.67615
     27       0.00000          -0.027347           -0.74414
     28       0.00000          -0.022832           -0.62128
     29       0.00000          -0.001093           -0.02975
     30       0.00000           0.005433            0.14783
     31       0.00000           0.019749            0.53741
     32       0.00000           0.032689            0.88950
     33       0.00000           0.044466            1.20998
     34       0.00000           0.059376            1.61571
     35       0.00000           0.097521            2.65368
     36       0.00000           0.132216            3.59778
     37       0.00000           0.159463            4.33922
     38       0.00000           0.201284            5.47723
     39       0.00000           0.208321            5.66870
     40       0.00000           0.242395            6.59589
     41       0.00000           0.242576            6.60083
     42       0.00000           0.271864            7.39779
     43       0.00000           0.293784            7.99427
     44       0.00000           0.297942            8.10740
     45       0.00000           0.346589            9.43116
     46       0.00000           0.355901            9.68455
     47       0.00000           0.369228           10.04721
     48       0.00000           0.382676           10.41315
     49       0.00000           0.421212           11.46175
     50       0.00000           0.475527           12.93976
     51       0.00000           0.497013           13.52442
     52       0.00000           0.543971           14.80220
     53       0.00000           0.585165           15.92314

  Highest occupied state (VBM) at    -10.27126394 eV
  | Occupation number:      2.00000000

  Lowest unoccupied state (CBM) at    -4.39739106 eV
  | Occupation number:      0.00000000

  Overall HOMO-LUMO gap:      5.87387288 eV.
  Calculating total energy contributions from superposition of free atom densities.

  Total energy components:
  | Sum of eigenvalues            :        -188.83952761 Ha       -5138.58499458 eV
  | XC energy correction          :         -41.79039899 Ha       -1137.17461538 eV
  | XC potential correction       :          53.72242673 Ha        1461.86161014 eV
  | Free-atom electrostatic energy:        -146.85087847 Ha       -3996.01571826 eV
  | Hartree energy correction     :           0.00000000 Ha           0.00000000 eV
  | vdW energy correction         :           0.00000000 Ha           0.00000000 eV
  | Entropy correction            :           0.00000000 Ha           0.00000000 eV
  | ---------------------------
  | Total energy                  :        -323.75837834 Ha       -8809.91371808 eV
  | Total energy, T -> 0          :        -323.75837834 Ha       -8809.91371808 eV  <-- do not rely on this value for anything but (periodic) metals
  | Electronic free energy        :        -323.75837834 Ha       -8809.91371808 eV

  Derived energy quantities:
  | Kinetic energy                :         320.50145797 Ha        8721.28840577 eV
  | Electrostatic energy          :        -602.46943732 Ha      -16394.02750847 eV
  | Energy correction for multipole
  | error in Hartree potential    :           0.00000000 Ha           0.00000000 eV
  | Sum of eigenvalues per atom                           :        -395.27576881 eV
  | Total energy (T->0) per atom                          :        -677.68567062 eV  <-- do not rely on this value for anything but (periodic) metals
  | Electronic free energy per atom                       :        -677.68567062 eV
  Initialize hartree_potential_storage
  Max. number of atoms included in rho_multipole:           13

  End scf initialization - timings             :  max(cpu_time)    wall_clock(cpu1)
  | Time for scf. initialization               :        1.141 s           1.142 s
  | Boundary condition initialization          :        0.000 s           0.000 s
  | Integration                                :        0.700 s           0.700 s
  | Solution of K.-S. eqns.                    :        0.004 s           0.004 s
  | Grid partitioning                          :        0.110 s           0.110 s
  | Preloading free-atom quantities on grid    :        0.002 s           0.002 s
  | Free-atom superposition energy             :        0.084 s           0.085 s
  | Total energy evaluation                    :        0.000 s           0.000 s

  Partial memory accounting:
  | Current value for overall tracked memory usage on task 0  :           0.165 MB
  | Peak value for overall tracked memory usage on task 0     :           0.678 MB after allocating wave
  | Largest tracked array allocation on task 0 so far         :           0.132 MB  when allocating H_times_psi
  Note:  These values currently only include a subset of arrays which are explicitly tracked.
  The "true" memory usage will be greater.
------------------------------------------------------------

------------------------------------------------------------
          Begin self-consistency iteration #    1

  Date     :  20200710, Time     :  151501.170
------------------------------------------------------------
  Evaluating new KS density.
  Integration grid: deviation in total charge (<rho> - N_e) =  -4.973799E-14
  Pulay mixing of updated and previous charge densities.

  Evaluating partitioned Hartree potential by multipole expansion.
  | Analytical far-field extrapolation by fixed multipoles:
  | Hartree multipole sum: apparent total charge =  -0.135189E-03
  Summing up the Hartree potential.
  Time summed over all CPUs for potential: real work        0.288 s, elapsed        0.288 s
  | RMS charge density error from multipole expansion :   0.591761E-02

  Integrating Hamiltonian matrix: batch-based integration.
  Time summed over all CPUs for integration: real work        0.492 s, elapsed        0.492 s

  Updating Kohn-Sham eigenvalues and eigenvectors using ELSI and the ELPA eigensolver.
  Finished Cholesky decomposition
  | Time :     0.000 s
  Finished transformation to standard eigenproblem
  | Time :     0.000 s
  Starting LAPACK eigensolver
  Finished solving standard eigenproblem
  | Time :     0.002 s
  Finished back-transformation of eigenvectors
  | Time :     0.000 s

  Obtaining occupation numbers and chemical potential using ELSI.
  | Chemical potential (Fermi level):    -7.97723944eV
  Writing Kohn-Sham eigenvalues.

  State    Occupation    Eigenvalue [Ha]    Eigenvalue [eV]
      1       2.00000         -18.902930         -514.37489
      2       2.00000         -18.840517         -512.67655
      3       2.00000         -14.093957         -383.51607
      4       2.00000         -10.118512         -275.33872
      5       2.00000         -10.062065         -273.80272
      6       2.00000         -10.032260         -272.99167
      7       2.00000          -1.138101          -30.96929
      8       2.00000          -1.034971          -28.16299
      9       2.00000          -0.920713          -25.05387
     10       2.00000          -0.793350          -21.58815
     11       2.00000          -0.706842          -19.23415
     12       2.00000          -0.640158          -17.41958
     13       2.00000          -0.566831          -15.42426
     14       2.00000          -0.544421          -14.81446
     15       2.00000          -0.538127          -14.64319
     16       2.00000          -0.512082          -13.93445
     17       2.00000          -0.492036          -13.38898
     18       2.00000          -0.470538          -12.80399
     19       2.00000          -0.447463          -12.17609
     20       2.00000          -0.440540          -11.98771
     21       2.00000          -0.403677          -10.98460
     22       2.00000          -0.375319          -10.21296
     23       2.00000          -0.344546           -9.37559
     24       2.00000          -0.304971           -8.29868
     25       0.00000          -0.128077           -3.48517
     26       0.00000          -0.040394           -1.09917
     27       0.00000           0.000002            0.00006
     28       0.00000           0.015301            0.41637
     29       0.00000           0.031002            0.84362
     30       0.00000           0.045098            1.22718
     31       0.00000           0.058525            1.59253
     32       0.00000           0.073588            2.00242
     33       0.00000           0.077690            2.11404
     34       0.00000           0.102187            2.78064
     35       0.00000           0.139814            3.80453
     36       0.00000           0.159961            4.35275
     37       0.00000           0.183186            4.98475
     38       0.00000           0.228394            6.21492
     39       0.00000           0.238394            6.48703
     40       0.00000           0.276395            7.52109
     41       0.00000           0.280163            7.62363
     42       0.00000           0.311005            8.46288
     43       0.00000           0.329101            8.95528
     44       0.00000           0.332567            9.04961
     45       0.00000           0.377652           10.27643
     46       0.00000           0.400137           10.88827
     47       0.00000           0.409628           11.14655
     48       0.00000           0.416884           11.34400
     49       0.00000           0.460283           12.52494
     50       0.00000           0.509723           13.87026
     51       0.00000           0.533835           14.52638
     52       0.00000           0.576528           15.68812
     53       0.00000           0.622077           16.92756

  Highest occupied state (VBM) at     -8.29868206 eV
  | Occupation number:      2.00000000

  Lowest unoccupied state (CBM) at    -3.48516534 eV
  | Occupation number:      0.00000000

  Overall HOMO-LUMO gap:      4.81351671 eV.

  Total energy components:
  | Sum of eigenvalues            :        -185.44985234 Ha       -5046.34723756 eV
  | XC energy correction          :         -42.11987382 Ha       -1146.14008158 eV
  | XC potential correction       :          54.15094689 Ha        1473.52223676 eV
  | Free-atom electrostatic energy:        -146.85087847 Ha       -3996.01571826 eV
  | Hartree energy correction     :          -3.30547031 Ha         -89.94642364 eV
  | vdW energy correction         :           0.00000000 Ha           0.00000000 eV
  | Entropy correction            :           0.00000000 Ha           0.00000000 eV
  | ---------------------------
  | Total energy                  :        -323.57512806 Ha       -8804.92722428 eV
  | Total energy, T -> 0          :        -323.57512806 Ha       -8804.92722428 eV  <-- do not rely on this value for anything but (periodic) metals
  | Electronic free energy        :        -323.57512806 Ha       -8804.92722428 eV

  Derived energy quantities:
  | Kinetic energy                :         322.29947615 Ha        8770.21496967 eV
  | Electrostatic energy          :        -603.75473039 Ha      -16429.00211237 eV
  | Energy correction for multipole
  | error in Hartree potential    :           0.01211552 Ha           0.32968006 eV
  | Sum of eigenvalues per atom                           :        -388.18055674 eV
  | Total energy (T->0) per atom                          :        -677.30209418 eV  <-- do not rely on this value for anything but (periodic) metals
  | Electronic free energy per atom                       :        -677.30209418 eV

  Self-consistency convergence accuracy:
  | Change of charge density      :  0.5873E+00
  | Change of sum of eigenvalues  :  0.9224E+02 eV
  | Change of total energy        :  0.4986E+01 eV

  End self-consistency iteration #     1       :  max(cpu_time)    wall_clock(cpu1)
  | Time for this iteration                    :        1.181 s           1.189 s
  | Charge density update                      :        0.391 s           0.391 s
  | Density mixing                             :        0.005 s           0.006 s
  | Hartree multipole update                   :        0.009 s           0.009 s
  | Hartree multipole summation                :        0.282 s           0.288 s
  | Integration                                :        0.492 s           0.492 s
  | Solution of K.-S. eqns.                    :        0.002 s           0.002 s
  | Total energy evaluation                    :        0.000 s           0.001 s

  Partial memory accounting:
  | Current value for overall tracked memory usage on task 0  :           0.165 MB
  | Peak value for overall tracked memory usage on task 0     :           0.695 MB after allocating gradient_basis_wave
  | Largest tracked array allocation on task 0 so far         :           0.397 MB  when allocating gradient_basis_wave
  Note:  These values currently only include a subset of arrays which are explicitly tracked.
  The "true" memory usage will be greater.
------------------------------------------------------------

------------------------------------------------------------
          Begin self-consistency iteration #    2

  Date     :  20200710, Time     :  151502.359
------------------------------------------------------------
  Evaluating new KS density.
  Integration grid: deviation in total charge (<rho> - N_e) =  -3.552714E-14
  Pulay mixing of updated and previous charge densities.

  Evaluating partitioned Hartree potential by multipole expansion.
  | Analytical far-field extrapolation by fixed multipoles:
  | Hartree multipole sum: apparent total charge =  -0.267377E-03
  Summing up the Hartree potential.
  Time summed over all CPUs for potential: real work        0.281 s, elapsed        0.281 s
  | RMS charge density error from multipole expansion :   0.140273E-01

  Integrating Hamiltonian matrix: batch-based integration.
  Time summed over all CPUs for integration: real work        0.489 s, elapsed        0.490 s

  Updating Kohn-Sham eigenvalues and eigenvectors using ELSI and the ELPA eigensolver.
  Finished Cholesky decomposition
  | Time :     0.000 s
  Finished transformation to standard eigenproblem
  | Time :     0.000 s
  Starting LAPACK eigensolver
  Finished solving standard eigenproblem
  | Time :     0.002 s
  Finished back-transformation of eigenvectors
  | Time :     0.000 s

  Obtaining occupation numbers and chemical potential using ELSI.
  | Chemical potential (Fermi level):    -2.51432313eV
  Highest occupied state (VBM) at     -6.29756348 eV
  | Occupation number:      2.00000000

  Lowest unoccupied state (CBM) at    -2.31136619 eV
  | Occupation number:      0.00000000

  Overall HOMO-LUMO gap:      3.98619729 eV.

  Checking to see if s.c.f. parameters should be adjusted.

  Total energy components:
  | Sum of eigenvalues            :        -181.87651053 Ha       -4949.11165954 eV
  | XC energy correction          :         -42.48053084 Ha       -1155.95405836 eV
  | XC potential correction       :          54.61849710 Ha        1486.24492531 eV
  | Free-atom electrostatic energy:        -146.85087847 Ha       -3996.01571826 eV
  | Hartree energy correction     :          -6.90653712 Ha        -187.93643715 eV
  | vdW energy correction         :           0.00000000 Ha           0.00000000 eV
  | Entropy correction            :          -0.00000000 Ha          -0.00000000 eV
  | ---------------------------
  | Total energy                  :        -323.49595986 Ha       -8802.77294801 eV
  | Total energy, T -> 0          :        -323.49595986 Ha       -8802.77294801 eV  <-- do not rely on this value for anything but (periodic) metals
  | Electronic free energy        :        -323.49595986 Ha       -8802.77294801 eV

  Derived energy quantities:
  | Kinetic energy                :         323.62447301 Ha        8806.26996860 eV
  | Electrostatic energy          :        -604.63990203 Ha      -16453.08885825 eV
  | Energy correction for multipole
  | error in Hartree potential    :           0.02667960 Ha           0.72598877 eV
  | Sum of eigenvalues per atom                           :        -380.70089689 eV
  | Total energy (T->0) per atom                          :        -677.13638062 eV  <-- do not rely on this value for anything but (periodic) metals
  | Electronic free energy per atom                       :        -677.13638062 eV

  Self-consistency convergence accuracy:
  | Change of charge density      :  0.3675E+00
  | Change of sum of eigenvalues  :  0.9724E+02 eV
  | Change of total energy        :  0.2154E+01 eV

  End self-consistency iteration #     2       :  max(cpu_time)    wall_clock(cpu1)
  | Time for this iteration                    :        1.172 s           1.173 s
  | Charge density update                      :        0.383 s           0.384 s
  | Density mixing                             :        0.007 s           0.006 s
  | Hartree multipole update                   :        0.008 s           0.009 s
  | Hartree multipole summation                :        0.282 s           0.282 s
  | Integration                                :        0.490 s           0.489 s
  | Solution of K.-S. eqns.                    :        0.002 s           0.002 s
  | Total energy evaluation                    :        0.000 s           0.000 s

  Partial memory accounting:
  | Current value for overall tracked memory usage on task 0  :           0.166 MB
  | Peak value for overall tracked memory usage on task 0     :           0.695 MB after allocating gradient_basis_wave
  | Largest tracked array allocation on task 0 so far         :           0.397 MB  when allocating gradient_basis_wave
  Note:  These values currently only include a subset of arrays which are explicitly tracked.
  The "true" memory usage will be greater.
------------------------------------------------------------

------------------------------------------------------------
          Begin self-consistency iteration #    3

  Date     :  20200710, Time     :  151503.534
------------------------------------------------------------
  Evaluating new KS density.
  Integration grid: deviation in total charge (<rho> - N_e) =  -2.842171E-14
  Pulay mixing of updated and previous charge densities.

  Evaluating partitioned Hartree potential by multipole expansion.
  | Analytical far-field extrapolation by fixed multipoles:
  | Hartree multipole sum: apparent total charge =  -0.356675E-03
  Summing up the Hartree potential.
  Time summed over all CPUs for potential: real work        0.281 s, elapsed        0.281 s
  | RMS charge density error from multipole expansion :   0.220032E-01

  Integrating Hamiltonian matrix: batch-based integration.
  Time summed over all CPUs for integration: real work        0.490 s, elapsed        0.490 s

  Updating Kohn-Sham eigenvalues and eigenvectors using ELSI and the ELPA eigensolver.
  Finished Cholesky decomposition
  | Time :     0.000 s
  Finished transformation to standard eigenproblem
  | Time :     0.000 s
  Starting LAPACK eigensolver
  Finished solving standard eigenproblem
  | Time :     0.001 s
  Finished back-transformation of eigenvectors
  | Time :     0.000 s

  Obtaining occupation numbers and chemical potential using ELSI.
  | Chemical potential (Fermi level):    -1.78780086eV
  Highest occupied state (VBM) at     -5.60395590 eV
  | Occupation number:      2.00000000

  Lowest unoccupied state (CBM) at    -1.63743428 eV
  | Occupation number:      0.00000000

  Overall HOMO-LUMO gap:      3.96652162 eV.

  Total energy components:
  | Sum of eigenvalues            :        -180.55697963 Ha       -4913.20539699 eV
  | XC energy correction          :         -42.63285607 Ha       -1160.09903881 eV
  | XC potential correction       :          54.81288020 Ha        1491.53435877 eV
  | Free-atom electrostatic energy:        -146.85087847 Ha       -3996.01571826 eV
  | Hartree energy correction     :          -8.25522095 Ha        -224.63599149 eV
  | vdW energy correction         :           0.00000000 Ha           0.00000000 eV
  | Entropy correction            :          -0.00000000 Ha          -0.00000000 eV
  | ---------------------------
  | Total energy                  :        -323.48305492 Ha       -8802.42178678 eV
  | Total energy, T -> 0          :        -323.48305492 Ha       -8802.42178678 eV  <-- do not rely on this value for anything but (periodic) metals
  | Electronic free energy        :        -323.48305492 Ha       -8802.42178678 eV

  Derived energy quantities:
  | Kinetic energy                :         323.22396071 Ha        8795.37147448 eV
  | Electrostatic energy          :        -604.07415957 Ha      -16437.69422244 eV
  | Energy correction for multipole
  | error in Hartree potential    :           0.03762228 Ha           1.02375434 eV
  | Sum of eigenvalues per atom                           :        -377.93887669 eV
  | Total energy (T->0) per atom                          :        -677.10936821 eV  <-- do not rely on this value for anything but (periodic) metals
  | Electronic free energy per atom                       :        -677.10936821 eV

  Self-consistency convergence accuracy:
  | Change of charge density      :  0.2055E+00
  | Change of sum of eigenvalues  :  0.3591E+02 eV
  | Change of total energy        :  0.3512E+00 eV

  End self-consistency iteration #     3       :  max(cpu_time)    wall_clock(cpu1)
  | Time for this iteration                    :        1.174 s           1.174 s
  | Charge density update                      :        0.383 s           0.383 s
  | Density mixing                             :        0.008 s           0.009 s
  | Hartree multipole update                   :        0.009 s           0.008 s
  | Hartree multipole summation                :        0.282 s           0.282 s
  | Integration                                :        0.490 s           0.490 s
  | Solution of K.-S. eqns.                    :        0.002 s           0.002 s
  | Total energy evaluation                    :        0.000 s           0.000 s

  Partial memory accounting:
  | Current value for overall tracked memory usage on task 0  :           0.166 MB
  | Peak value for overall tracked memory usage on task 0     :           0.695 MB after allocating gradient_basis_wave
  | Largest tracked array allocation on task 0 so far         :           0.397 MB  when allocating gradient_basis_wave
  Note:  These values currently only include a subset of arrays which are explicitly tracked.
  The "true" memory usage will be greater.
------------------------------------------------------------

------------------------------------------------------------
          Begin self-consistency iteration #    4

  Date     :  20200710, Time     :  151504.710
------------------------------------------------------------
  Evaluating new KS density.
  Integration grid: deviation in total charge (<rho> - N_e) =   4.263256E-14
  Pulay mixing of updated and previous charge densities.

  Evaluating partitioned Hartree potential by multipole expansion.
  | Analytical far-field extrapolation by fixed multipoles:
  | Hartree multipole sum: apparent total charge =  -0.385513E-03
  Summing up the Hartree potential.
  Time summed over all CPUs for potential: real work        0.282 s, elapsed        0.282 s
  | RMS charge density error from multipole expansion :   0.254455E-01

  Integrating Hamiltonian matrix: batch-based integration.
  Time summed over all CPUs for integration: real work        0.489 s, elapsed        0.489 s

  Updating Kohn-Sham eigenvalues and eigenvectors using ELSI and the ELPA eigensolver.
  Finished Cholesky decomposition
  | Time :     0.000 s
  Finished transformation to standard eigenproblem
  | Time :     0.000 s
  Starting LAPACK eigensolver
  Finished solving standard eigenproblem
  | Time :     0.002 s
  Finished back-transformation of eigenvectors
  | Time :     0.000 s

  Obtaining occupation numbers and chemical potential using ELSI.
  | Chemical potential (Fermi level):    -1.69706798eV
  Highest occupied state (VBM) at     -5.42574624 eV
  | Occupation number:      2.00000000

  Lowest unoccupied state (CBM) at    -1.54978780 eV
  | Occupation number:      0.00000000

  Overall HOMO-LUMO gap:      3.87595845 eV.

  Total energy components:
  | Sum of eigenvalues            :        -180.42239849 Ha       -4909.54325759 eV
  | XC energy correction          :         -42.66966677 Ha       -1161.10070898 eV
  | XC potential correction       :          54.85916365 Ha        1492.79379541 eV
  | Free-atom electrostatic energy:        -146.85087847 Ha       -3996.01571826 eV
  | Hartree energy correction     :          -8.39828733 Ha        -228.52902568 eV
  | vdW energy correction         :           0.00000000 Ha           0.00000000 eV
  | Entropy correction            :          -0.00000000 Ha          -0.00000000 eV
  | ---------------------------
  | Total energy                  :        -323.48206741 Ha       -8802.39491510 eV
  | Total energy, T -> 0          :        -323.48206741 Ha       -8802.39491510 eV  <-- do not rely on this value for anything but (periodic) metals
  | Electronic free energy        :        -323.48206741 Ha       -8802.39491510 eV

  Derived energy quantities:
  | Kinetic energy                :         322.82490531 Ha        8784.51262451 eV
  | Electrostatic energy          :        -603.63730595 Ha      -16425.80683063 eV
  | Energy correction for multipole
  | error in Hartree potential    :           0.04180343 Ha           1.13752912 eV
  | Sum of eigenvalues per atom                           :        -377.65717366 eV
  | Total energy (T->0) per atom                          :        -677.10730116 eV  <-- do not rely on this value for anything but (periodic) metals
  | Electronic free energy per atom                       :        -677.10730116 eV

  Self-consistency convergence accuracy:
  | Change of charge density      :  0.6661E-01
  | Change of sum of eigenvalues  :  0.3662E+01 eV
  | Change of total energy        :  0.2687E-01 eV

  End self-consistency iteration #     4       :  max(cpu_time)    wall_clock(cpu1)
  | Time for this iteration                    :        1.175 s           1.175 s
  | Charge density update                      :        0.383 s           0.383 s
  | Density mixing                             :        0.009 s           0.009 s
  | Hartree multipole update                   :        0.009 s           0.009 s
  | Hartree multipole summation                :        0.282 s           0.282 s
  | Integration                                :        0.489 s           0.490 s
  | Solution of K.-S. eqns.                    :        0.002 s           0.002 s
  | Total energy evaluation                    :        0.000 s           0.000 s

  Partial memory accounting:
  | Current value for overall tracked memory usage on task 0  :           0.166 MB
  | Peak value for overall tracked memory usage on task 0     :           0.696 MB after allocating gradient_basis_wave
  | Largest tracked array allocation on task 0 so far         :           0.397 MB  when allocating gradient_basis_wave
  Note:  These values currently only include a subset of arrays which are explicitly tracked.
  The "true" memory usage will be greater.
------------------------------------------------------------

------------------------------------------------------------
          Begin self-consistency iteration #    5

  Date     :  20200710, Time     :  151505.886
------------------------------------------------------------
  Evaluating new KS density.
  Integration grid: deviation in total charge (<rho> - N_e) =  -4.973799E-14
  Pulay mixing of updated and previous charge densities.

  Evaluating partitioned Hartree potential by multipole expansion.
  | Analytical far-field extrapolation by fixed multipoles:
  | Hartree multipole sum: apparent total charge =  -0.379402E-03
  Summing up the Hartree potential.
  Time summed over all CPUs for potential: real work        0.281 s, elapsed        0.281 s
  | RMS charge density error from multipole expansion :   0.252183E-01

  Integrating Hamiltonian matrix: batch-based integration.
  Time summed over all CPUs for integration: real work        0.490 s, elapsed        0.490 s

  Updating Kohn-Sham eigenvalues and eigenvectors using ELSI and the ELPA eigensolver.
  Finished Cholesky decomposition
  | Time :     0.000 s
  Finished transformation to standard eigenproblem
  | Time :     0.000 s
  Starting LAPACK eigensolver
  Finished solving standard eigenproblem
  | Time :     0.001 s
  Finished back-transformation of eigenvectors
  | Time :     0.000 s

  Obtaining occupation numbers and chemical potential using ELSI.
  | Chemical potential (Fermi level):    -1.76500083eV
  Highest occupied state (VBM) at     -5.51715621 eV
  | Occupation number:      2.00000000

  Lowest unoccupied state (CBM) at    -1.64035648 eV
  | Occupation number:      0.00000000

  Overall HOMO-LUMO gap:      3.87679973 eV.

  Total energy components:
  | Sum of eigenvalues            :        -180.62619974 Ha       -4915.08897203 eV
  | XC energy correction          :         -42.64472156 Ha       -1160.42191513 eV
  | XC potential correction       :          54.82680025 Ha        1491.91314239 eV
  | Free-atom electrostatic energy:        -146.85087847 Ha       -3996.01571826 eV
  | Hartree energy correction     :          -8.18678325 Ha        -222.77370696 eV
  | vdW energy correction         :           0.00000000 Ha           0.00000000 eV
  | Entropy correction            :          -0.00000000 Ha          -0.00000000 eV
  | ---------------------------
  | Total energy                  :        -323.48178278 Ha       -8802.38716999 eV
  | Total energy, T -> 0          :        -323.48178278 Ha       -8802.38716999 eV  <-- do not rely on this value for anything but (periodic) metals
  | Electronic free energy        :        -323.48178278 Ha       -8802.38716999 eV

  Derived energy quantities:
  | Kinetic energy                :         322.70390589 Ha        8781.22006275 eV
  | Electrostatic energy          :        -603.54096711 Ha      -16423.18531761 eV
  | Energy correction for multipole
  | error in Hartree potential    :           0.04116415 Ha           1.12013347 eV
  | Sum of eigenvalues per atom                           :        -378.08376708 eV
  | Total energy (T->0) per atom                          :        -677.10670538 eV  <-- do not rely on this value for anything but (periodic) metals
  | Electronic free energy per atom                       :        -677.10670538 eV

  Self-consistency convergence accuracy:
  | Change of charge density      :  0.2035E-01
  | Change of sum of eigenvalues  : -0.5546E+01 eV
  | Change of total energy        :  0.7745E-02 eV

  End self-consistency iteration #     5       :  max(cpu_time)    wall_clock(cpu1)
  | Time for this iteration                    :        1.176 s           1.177 s
  | Charge density update                      :        0.383 s           0.383 s
  | Density mixing                             :        0.011 s           0.011 s
  | Hartree multipole update                   :        0.009 s           0.009 s
  | Hartree multipole summation                :        0.282 s           0.282 s
  | Integration                                :        0.490 s           0.489 s
  | Solution of K.-S. eqns.                    :        0.002 s           0.002 s
  | Total energy evaluation                    :        0.000 s           0.001 s

  Partial memory accounting:
  | Current value for overall tracked memory usage on task 0  :           0.166 MB
  | Peak value for overall tracked memory usage on task 0     :           0.696 MB after allocating gradient_basis_wave
  | Largest tracked array allocation on task 0 so far         :           0.397 MB  when allocating gradient_basis_wave
  Note:  These values currently only include a subset of arrays which are explicitly tracked.
  The "true" memory usage will be greater.
------------------------------------------------------------

------------------------------------------------------------
          Begin self-consistency iteration #    6

  Date     :  20200710, Time     :  151507.066
------------------------------------------------------------
  Evaluating new KS density.
  Integration grid: deviation in total charge (<rho> - N_e) =   7.105427E-14
  Pulay mixing of updated and previous charge densities.

  Evaluating partitioned Hartree potential by multipole expansion.
  | Analytical far-field extrapolation by fixed multipoles:
  | Hartree multipole sum: apparent total charge =  -0.382906E-03
  Summing up the Hartree potential.
  Time summed over all CPUs for potential: real work        0.281 s, elapsed        0.281 s
  | RMS charge density error from multipole expansion :   0.256773E-01

  Integrating Hamiltonian matrix: batch-based integration.
  Time summed over all CPUs for integration: real work        0.489 s, elapsed        0.489 s

  Updating Kohn-Sham eigenvalues and eigenvectors using ELSI and the ELPA eigensolver.
  Finished Cholesky decomposition
  | Time :     0.000 s
  Finished transformation to standard eigenproblem
  | Time :     0.000 s
  Starting LAPACK eigensolver
  Finished solving standard eigenproblem
  | Time :     0.002 s
  Finished back-transformation of eigenvectors
  | Time :     0.000 s

  Obtaining occupation numbers and chemical potential using ELSI.
  | Chemical potential (Fermi level):    -1.76197573eV
  Highest occupied state (VBM) at     -5.48050246 eV
  | Occupation number:      2.00000000

  Lowest unoccupied state (CBM) at    -1.64881822 eV
  | Occupation number:      0.00000000

  Overall HOMO-LUMO gap:      3.83168424 eV.

  Total energy components:
  | Sum of eigenvalues            :        -180.61333856 Ha       -4914.73900125 eV
  | XC energy correction          :         -42.64575472 Ha       -1160.45002887 eV
  | XC potential correction       :          54.82811313 Ha        1491.94886774 eV
  | Free-atom electrostatic energy:        -146.85087847 Ha       -3996.01571826 eV
  | Hartree energy correction     :          -8.19988381 Ha        -223.13019108 eV
  | vdW energy correction         :           0.00000000 Ha           0.00000000 eV
  | Entropy correction            :          -0.00000000 Ha          -0.00000000 eV
  | ---------------------------
  | Total energy                  :        -323.48174242 Ha       -8802.38607172 eV
  | Total energy, T -> 0          :        -323.48174242 Ha       -8802.38607172 eV  <-- do not rely on this value for anything but (periodic) metals
  | Electronic free energy        :        -323.48174242 Ha       -8802.38607172 eV

  Derived energy quantities:
  | Kinetic energy                :         322.63135852 Ha        8779.24594831 eV
  | Electrostatic energy          :        -603.46734622 Ha      -16421.18199116 eV
  | Energy correction for multipole
  | error in Hartree potential    :           0.04158970 Ha           1.13171334 eV
  | Sum of eigenvalues per atom                           :        -378.05684625 eV
  | Total energy (T->0) per atom                          :        -677.10662090 eV  <-- do not rely on this value for anything but (periodic) metals
  | Electronic free energy per atom                       :        -677.10662090 eV

  Self-consistency convergence accuracy:
  | Change of charge density      :  0.1059E-01
  | Change of sum of eigenvalues  :  0.3500E+00 eV
  | Change of total energy        :  0.1098E-02 eV

  End self-consistency iteration #     6       :  max(cpu_time)    wall_clock(cpu1)
  | Time for this iteration                    :        1.176 s           1.177 s
  | Charge density update                      :        0.383 s           0.383 s
  | Density mixing                             :        0.012 s           0.012 s
  | Hartree multipole update                   :        0.009 s           0.008 s
  | Hartree multipole summation                :        0.282 s           0.282 s
  | Integration                                :        0.489 s           0.490 s
  | Solution of K.-S. eqns.                    :        0.002 s           0.002 s
  | Total energy evaluation                    :        0.000 s           0.000 s

  Partial memory accounting:
  | Current value for overall tracked memory usage on task 0  :           0.166 MB
  | Peak value for overall tracked memory usage on task 0     :           0.696 MB after allocating gradient_basis_wave
  | Largest tracked array allocation on task 0 so far         :           0.397 MB  when allocating gradient_basis_wave
  Note:  These values currently only include a subset of arrays which are explicitly tracked.
  The "true" memory usage will be greater.
------------------------------------------------------------

------------------------------------------------------------
          Begin self-consistency iteration #    7

  Date     :  20200710, Time     :  151508.246
------------------------------------------------------------
  Evaluating new KS density.
  Integration grid: deviation in total charge (<rho> - N_e) =   2.842171E-14
  Pulay mixing of updated and previous charge densities.

  Evaluating partitioned Hartree potential by multipole expansion.
  | Analytical far-field extrapolation by fixed multipoles:
  | Hartree multipole sum: apparent total charge =  -0.383446E-03
  Summing up the Hartree potential.
  Time summed over all CPUs for potential: real work        0.282 s, elapsed        0.282 s
  | RMS charge density error from multipole expansion :   0.257867E-01

  Integrating Hamiltonian matrix: batch-based integration.
  Time summed over all CPUs for integration: real work        0.489 s, elapsed        0.489 s

  Updating Kohn-Sham eigenvalues and eigenvectors using ELSI and the ELPA eigensolver.
  Finished Cholesky decomposition
  | Time :     0.000 s
  Finished transformation to standard eigenproblem
  | Time :     0.000 s
  Starting LAPACK eigensolver
  Finished solving standard eigenproblem
  | Time :     0.001 s
  Finished back-transformation of eigenvectors
  | Time :     0.000 s

[...]
  |   Hirshfeld dipole moment :      0.05992099
  |   Hirshfeld second moments:      0.00773781      -0.02984682      -0.02039532
  |                                 -0.02984682      -0.01545771       0.01275087
  |                                 -0.02039532       0.01275087      -0.01508208
  ----------------------------------------------------------------------
  | Atom    12: O
  |   Hirshfeld charge        :     -0.15284457
  |   Free atom volume        :     23.61338643
  |   Hirshfeld volume        :     20.66161811
  |   Hirshfeld dipole vector :      0.03544006       0.01271928       0.01052630
  |   Hirshfeld dipole moment :      0.03909707
  |   Hirshfeld second moments:      0.05420317      -0.02438191      -0.01187973
  |                                 -0.02438191       0.09575699       0.02012812
  |                                 -0.01187973       0.02012812       0.04142595
  ----------------------------------------------------------------------
  | Atom    13: H
  |   Hirshfeld charge        :      0.18840290
  |   Free atom volume        :      9.95071624
  |   Hirshfeld volume        :      5.95871177
  |   Hirshfeld dipole vector :      0.08060660      -0.09677467      -0.02608551
  |   Hirshfeld dipole moment :      0.12862042
  |   Hirshfeld second moments:      0.12070508       0.00152121      -0.00502177
  |                                  0.00152121       0.12858325       0.00183991
  |                                 -0.00502177       0.00183991       0.11042089
  ----------------------------------------------------------------------


  Total energy components:
  | Sum of eigenvalues            :        -180.61154385 Ha       -4914.69016494 eV
  | XC energy correction          :         -42.64259940 Ha       -1160.36416836 eV
  | XC potential correction       :          54.82411487 Ha        1491.84006964 eV
  | Free-atom electrostatic energy:        -146.85087847 Ha       -3996.01571826 eV
  | Hartree energy correction     :          -8.20081209 Ha        -223.15545087 eV
  | vdW energy correction         :          -0.00326602 Ha          -0.08887287 eV
  | Entropy correction            :          -0.00000000 Ha          -0.00000000 eV
  | ---------------------------
  | Total energy                  :        -323.48498496 Ha       -8802.47430566 eV
  | Total energy, T -> 0          :        -323.48498496 Ha       -8802.47430566 eV  <-- do not rely on this value for anything but (periodic) metals
  | Electronic free energy        :        -323.48498496 Ha       -8802.47430566 eV

  Derived energy quantities:
  | Kinetic energy                :         322.59347660 Ha        8778.21512888 eV
  | Electrostatic energy          :        -603.43259614 Ha      -16420.23639331 eV
  | Energy correction for multipole
  | error in Hartree potential    :           0.04162072 Ha           1.13255751 eV
  | Sum of eigenvalues per atom                           :        -378.05308961 eV
  | Total energy (T->0) per atom                          :        -677.11340813 eV  <-- do not rely on this value for anything but (periodic) metals
  | Electronic free energy per atom                       :        -677.11340813 eV

  atomic forces [eV/Ang]:
  -----------------------
  atom #    1
   Hellmann-Feynman              : -0.264869E+00 -0.158728E+00  0.913827E+00
   Ionic forces                  :  0.000000E+00  0.000000E+00  0.000000E+00
   Multipole                     :  0.132561E-01  0.308169E+00 -0.273474E+00
   Pulay + GGA                   : -0.774623E+00  0.103378E-01 -0.129672E+01
   Van der Waals                 :  0.303895E-02  0.763932E-02 -0.158203E-02
   ----------------------------------------------------------------
   Total forces(   1)            : -0.102320E+01  0.167418E+00 -0.657949E+00
  atom #    2
   Hellmann-Feynman              :  0.366062E+00 -0.853441E-01  0.106750E+00
   Ionic forces                  :  0.000000E+00  0.000000E+00  0.000000E+00
   Multipole                     :  0.168723E+00  0.461133E-01 -0.431798E-01
   Pulay + GGA                   : -0.147998E+00  0.441654E-01 -0.950313E-02
   Van der Waals                 :  0.571262E-02 -0.351572E-02 -0.534588E-02
   ----------------------------------------------------------------
   Total forces(   2)            :  0.392499E+00  0.141884E-02  0.487211E-01
  atom #    3
   Hellmann-Feynman              :  0.832094E+01  0.492771E+01 -0.519800E+01
   Ionic forces                  :  0.000000E+00  0.000000E+00  0.000000E+00
   Multipole                     : -0.133615E+00  0.153782E+00 -0.119895E+01
   Pulay + GGA                   : -0.733357E+01 -0.472632E+01  0.696502E+01
   Van der Waals                 :  0.354503E-02 -0.870526E-02 -0.643607E-02
   ----------------------------------------------------------------
   Total forces(   3)            :  0.857298E+00  0.346464E+00  0.561628E+00
  atom #    4
   Hellmann-Feynman              : -0.262041E+00  0.478866E-01 -0.937772E-01
   Ionic forces                  :  0.000000E+00  0.000000E+00  0.000000E+00
   Multipole                     : -0.518903E-01 -0.715417E-01 -0.736918E-01
   Pulay + GGA                   :  0.419334E-01  0.219075E+00  0.624244E-01
   Van der Waals                 : -0.337772E-02  0.671976E-02 -0.290958E-02
   ----------------------------------------------------------------
   Total forces(   4)            : -0.275376E+00  0.202139E+00 -0.107954E+00
  atom #    5
   Hellmann-Feynman              : -0.378537E+00 -0.161415E+00 -0.202992E-01
   Ionic forces                  :  0.000000E+00  0.000000E+00  0.000000E+00
   Multipole                     : -0.928722E-01  0.318507E-01 -0.550930E-01
   Pulay + GGA                   :  0.235464E+00 -0.644568E-01 -0.400154E-01
   Van der Waals                 : -0.152369E-02 -0.415710E-02 -0.775589E-02
   ----------------------------------------------------------------
   Total forces(   5)            : -0.237468E+00 -0.198178E+00 -0.123164E+00
  atom #    6
   Hellmann-Feynman              :  0.106022E+00 -0.291570E+00  0.171149E+00
   Ionic forces                  :  0.000000E+00  0.000000E+00  0.000000E+00
   Multipole                     : -0.113676E+00  0.593771E+00  0.277614E+00
   Pulay + GGA                   :  0.310546E+00 -0.657271E+00 -0.427077E+00
   Van der Waals                 : -0.209379E-02  0.452617E-02 -0.330998E-02
   ----------------------------------------------------------------
   Total forces(   6)            :  0.300798E+00 -0.350544E+00  0.183754E-01
  atom #    7
   Hellmann-Feynman              : -0.239595E+00 -0.681086E-01 -0.438638E-01
   Ionic forces                  :  0.000000E+00  0.000000E+00  0.000000E+00
   Multipole                     : -0.120482E+00  0.489237E-01  0.353616E-01
   Pulay + GGA                   :  0.109298E+00  0.758300E-02  0.281253E-01
   Van der Waals                 : -0.241847E-02  0.350787E-02  0.774595E-02
   ----------------------------------------------------------------
   Total forces(   7)            : -0.253197E+00 -0.809409E-02  0.273691E-01
  atom #    8
   Hellmann-Feynman              :  0.662627E-01 -0.368469E-01  0.135538E+00
   Ionic forces                  :  0.000000E+00  0.000000E+00  0.000000E+00
   Multipole                     :  0.116180E-01  0.626836E-01  0.125241E+00
   Pulay + GGA                   : -0.463853E-01 -0.404873E-01 -0.109763E+00
   Van der Waals                 : -0.298374E-02  0.114238E-01  0.981098E-03
   ----------------------------------------------------------------
   Total forces(   8)            :  0.285116E-01 -0.322689E-02  0.151997E+00
  atom #    9
   Hellmann-Feynman              :  0.103854E+00  0.675737E-01 -0.167424E+00
   Ionic forces                  :  0.000000E+00  0.000000E+00  0.000000E+00
   Multipole                     :  0.195262E-01  0.127646E+00 -0.103777E-01
   Pulay + GGA                   : -0.348214E-01 -0.102249E+00  0.336469E-01
   Van der Waals                 : -0.364159E-03  0.654180E-02  0.717309E-02
   ----------------------------------------------------------------
   Total forces(   9)            :  0.881949E-01  0.995132E-01 -0.136982E+00
  atom #   10
   Hellmann-Feynman              :  0.318276E+01  0.605603E+01  0.206919E+01
   Ionic forces                  :  0.000000E+00  0.000000E+00  0.000000E+00
   Multipole                     :  0.259720E-01 -0.515424E-01  0.252572E+00
   Pulay + GGA                   : -0.214682E+01 -0.309764E+01 -0.149414E+00
   Van der Waals                 :  0.451419E-02 -0.160511E-01  0.520487E-02
   ----------------------------------------------------------------
   Total forces(  10)            :  0.106642E+01  0.289079E+01  0.217756E+01
  atom #   11
   Hellmann-Feynman              :  0.405580E+01 -0.218764E+01  0.138909E+02
   Ionic forces                  :  0.000000E+00  0.000000E+00  0.000000E+00
   Multipole                     :  0.799078E-01 -0.687927E+00  0.780758E+00
   Pulay + GGA                   : -0.306994E+01  0.335497E+01 -0.135425E+02
   Van der Waals                 : -0.361539E-02 -0.110122E-01  0.179209E-02
   ----------------------------------------------------------------
   Total forces(  11)            :  0.106215E+01  0.468393E+00  0.113096E+01
  atom #   12
   Hellmann-Feynman              : -0.133190E+02 -0.117248E+00 -0.892738E+01
   Ionic forces                  :  0.000000E+00  0.000000E+00  0.000000E+00
   Multipole                     : -0.106605E+01 -0.109230E+01 -0.367906E+00
   Pulay + GGA                   :  0.130795E+02 -0.124035E+01  0.621284E+01
   Van der Waals                 : -0.205358E-03  0.689687E-02  0.416351E-02
   ----------------------------------------------------------------
   Total forces(  12)            : -0.130575E+01 -0.244299E+01 -0.307828E+01
  atom #   13
   Hellmann-Feynman              : -0.450783E+00 -0.140258E+01 -0.426332E-01
   Ionic forces                  :  0.000000E+00  0.000000E+00  0.000000E+00
   Multipole                     :  0.424662E-01 -0.506148E-01 -0.263323E-01
   Pulay + GGA                   : -0.291499E+00  0.280405E+00  0.524649E-01
   Van der Waals                 : -0.228477E-03 -0.381422E-02  0.278812E-03
   ----------------------------------------------------------------
   Total forces(  13)            : -0.700045E+00 -0.117660E+01 -0.162219E-01

  Timings for VdW correction (Tkatchenko-Scheffler 2009 or later):
  | CPU time:        0.089 s, Wall clock time:        0.090 s.
  Removing unitary transformations (pure translations, rotations) from forces on atoms.
  Atomic forces before filtering:
  | Net force on center of mass :   0.841795E-03 -0.349457E-02 -0.394523E-02 eV/A
  | Net torque on center of mass:  -0.205411E-02  0.433635E-02  0.794587E-02 eV
  Atomic forces after filtering:
  | Net force on center of mass :   0.892031E-16  0.000000E+00 -0.741500E-15 eV/A
  | Net torque on center of mass:   0.566451E-15 -0.379616E-16  0.113290E-14 eV

  Energy and forces in a compact form:
  | Total energy uncorrected      :         -0.880247430566060E+04 eV
  | Total energy corrected        :         -0.880247430566060E+04 eV  <-- do not rely on this value for anything but (periodic) metals
  | Electronic free energy        :         -0.880247430566060E+04 eV
  Total atomic forces (unitary forces cleaned) [eV/Ang]:
  |   1         -0.102318847883775E+01          0.167578980205544E+00         -0.657536561140475E+00
  |   2          0.392507626051986E+00          0.130399184731747E-02          0.493844021403816E-01
  |   3          0.857630498299417E+00          0.346796514251103E+00          0.561929542313552E+00
  |   4         -0.275219142779548E+00          0.202521496372782E+00         -0.107722401381055E+00
  |   5         -0.236991441500645E+00         -0.197623671488564E+00         -0.123043266040676E+00
  |   6          0.300957629450733E+00         -0.350283957298608E+00          0.187185453181419E-01
  |   7         -0.253034799725721E+00         -0.755878472561131E-02          0.274621218312622E-01
  |   8          0.284369957349177E-01         -0.309502412523206E-02          0.152423885808156E+00
  |   9          0.886972905017421E-01          0.997000859749645E-01         -0.136522975810389E+00
  |  10          0.106593298894298E+01          0.289102892415549E+01          0.217783119992647E+01
  |  11          0.106132831282108E+01          0.468512750694392E+00          0.113129325966840E+01
  |  12         -0.130629320928778E+01         -0.244255556970589E+01         -0.307820107902228E+01
  |  13         -0.700764269671403E+00         -0.117632573615769E+01         -0.160166736114891E-01

  ------------------------------------ 
  Start decomposition of the XC Energy 
  ------------------------------------ 
  X and C from original XC functional choice 
  Hartree-Fock Energy :          0.000000000 Ha              0.000000000 eV
  X Energy            :        -41.041391369 Ha          -1116.793080961 eV
  C Energy            :         -1.601208031 Ha            -43.571087401 eV
  Total XC Energy     :        -42.642599400 Ha          -1160.364168362 eV
  ------------------------------------ 
  LDA X and C from self-consistent density 
  X Energy LDA        :        -37.261001163 Ha          -1013.923429493 eV
  C Energy LDA        :         -3.138897067 Ha            -85.413735005 eV
  ------------------------------------ 
  End decomposition of the XC Energy 
  ------------------------------------ 

------------------------------------------------------------

------------------------------------------------------------------------------
  Final output of selected total energy values:

  The following output summarizes some interesting total energy values
  at the end of a run (AFTER all relaxation, molecular dynamics, etc.).

  | Total energy of the DFT / Hartree-Fock s.c.f. calculation      :          -8802.474305661 eV
  | Final zero-broadening corrected energy (caution - metals only) :          -8802.474305661 eV
  | For reference only, the value of 1 Hartree used in FHI-aims is :             27.211384500 eV

  Before relying on these values, please be sure to understand exactly which
  total energy value is referred to by a given number. Different objects may
  all carry the same name 'total energy'. Definitions:

  Total energy of the DFT / Hartree-Fock s.c.f. calculation:
  | Note that this energy does not include ANY quantities calculated after the
  | s.c.f. cycle, in particular not ANY RPA, MP2, etc. many-body perturbation terms.

  Final zero-broadening corrected energy:
  | For metallic systems only, a broadening of the occupation numbers at the Fermi
  | level can be extrapolated back to zero broadening by an electron-gas inspired
  | formula. For all systems that are not real metals, this value can be
  | meaningless and should be avoided.

------------------------------------------------------------------------------
  Methods described in the following list of references were used in this FHI-aims run.
  If you publish the results, please make sure to cite these reference if they apply.
  FHI-aims is an academic code, and for our developers (often, Ph.D. students
  and postdocs), scientific credit in the community is essential.
  Thank you for helping us!

  For any use of FHI-aims, please cite:

    Volker Blum, Ralf Gehrke, Felix Hanke, Paula Havu, Ville Havu,
    Xinguo Ren, Karsten Reuter, and Matthias Scheffler
    'Ab initio molecular simulations with numeric atom-centered orbitals'
    Computer Physics Communications 180, 2175-2196 (2009)
    http://dx.doi.org/10.1016/j.cpc.2009.06.022


  The scalable eigensolver library ELPA was used in your run.
  ELPA is essential especially for large systems on hundreds or thousands of CPUs.
  For ELPA, please cite:

    Andreas Marek, Volker Blum, Rainer Johanni, Ville Havu, Bruno Lang,
    Thomas Auckenthaler, Alexander Heinecke, Hans-Joachim Bungartz, and Hermann Lederer,
    'The ELPA Library - Scalable Parallel Eigenvalue Solutions
    for Electronic Structure Theory and Computational Science'
    The Journal of Physics: Condensed Matter 26, 213201 (2014).
    http://dx.doi.org/10.1088/0953-8984/26/21/213201


  The ELSI infrastructure was used in your run to solve the Kohn-Sham electronic structure.
  Please check out http://elsi-interchange.org to learn more.
  If scalability is important for your project, please acknowledge ELSI by citing:

    V. W-z. Yu, F. Corsetti, A. Garcia, W. P. Huhn, M. Jacquelin, W. Jia,
    B. Lange, L. Lin, J. Lu, W. Mi, A. Seifitokaldani, A. Vazquez-Mayagoitia,
    C. Yang, H. Yang, and V. Blum
    'ELSI: A unified software interface for Kohn-Sham electronic structure solvers'
    Computer Physics Communications 222, 267-285 (2018).
    http://dx.doi.org/10.1016/j.cpc.2017.09.007


  For the real-space grid partitioning and parallelization used in this calculation, please cite:

    Ville Havu, Volker Blum, Paula Havu, and Matthias Scheffler,
    'Efficient O(N) integration for all-electron electronic structure calculation'
    'using numerically tabulated basis functions'
    Journal of Computational Physics 228, 8367-8379 (2009).
    http://dx.doi.org/10.1016/j.jcp.2009.08.008

  Of course, there are many other important community references, e.g., those cited in the
  above references. Our list is limited to references that describe implementations in the
  FHI-aims code. The reason is purely practical (length of this list) - please credit others as well.

------------------------------------------------------------
          Leaving FHI-aims.
          Date     :  20200710, Time     :  151522.423

          Computational steps:
          | Number of self-consistency cycles          :           16
          | Number of SCF (re)initializations          :            1

          Detailed time accounting                     :  max(cpu_time)    wall_clock(cpu1)
          | Total time                                 :       22.484 s          22.557 s
          | Preparation time                           :        0.146 s           0.149 s
          | Boundary condition initalization           :        0.000 s           0.000 s
          | Grid partitioning                          :        0.110 s           0.110 s
          | Preloading free-atom quantities on grid    :        0.002 s           0.002 s
          | Free-atom superposition energy             :        0.084 s           0.085 s
          | Total time for integrations                :        8.535 s           8.544 s
          | Total time for solution of K.-S. equations :        0.037 s           0.038 s
          | Total time for density & force components  :        7.069 s           7.077 s
          | Total time for mixing                      :        0.214 s           0.216 s
          | Total time for Hartree multipole update    :        0.139 s           0.141 s
          | Total time for Hartree multipole sum       :        5.752 s           5.768 s
          | Total time for total energy evaluation     :        0.003 s           0.005 s
          | Total time for vdW correction              :        0.089 s           0.090 s

          Partial memory accounting:
          | Residual value for overall tracked memory usage across tasks :           0.000 MB (should be 0.000 MB)
          | Peak values for overall tracked memory usage (after allocating hessian_basis_wave):
          |   Minimum:        1.622 MB (on task 1)
          |   Maximum:        1.622 MB (on task 1)
          |   Average:        1.622 MB
          | Largest tracked array allocation (hessian_basis_wave):
          |   Minimum:        0.794 MB (on task 1)
          |   Maximum:        0.794 MB (on task 1)
          |   Average:        0.794 MB
          Note:  These values currently only include a subset of arrays which are explicitly tracked.
          The "true" memory usage will be greater.

          Have a nice day.
------------------------------------------------------------
