  MPI-parallelism will be employed.
------------------------------------------------------------
          Invoking FHI-aims ...
          Version 171221_1
          Compiled on 2019/09/09 at 14:39:39 on host puhti-login2.bullx.

          When using FHI-aims, please cite the following reference:

          Volker Blum, Ralf Gehrke, Felix Hanke, Paula Havu,
          Ville Havu, Xinguo Ren, Karsten Reuter, and Matthias Scheffler,
          'Ab Initio Molecular Simulations with Numeric Atom-Centered Orbitals',
          Computer Physics Communications 180, 2175-2196 (2009)

          For any questions about FHI-aims, please visit the aimsclub website
          with its forums and wiki. Contributions to both the forums and the
          wiki are warmly encouraged - they are for you, and everyone is welcome there.

------------------------------------------------------------



  Date     :  20200902, Time     :  102855.257
  Time zero on CPU 1             :   0.114860000000000E-01  s.
  Internal wall clock time zero  :           368274535.257  s.

  FHI-aims created a unique identifier for this run for later identification
  aims_uuid : 08B96916-ABCC-4553-A9F9-615232BBEA1F

  Using        1 parallel tasks.
  Task        0 on host r18c48.bullx reporting.

  Performing system and environment tests:
  | Environment variable OMP_NUM_THREADS correctly set to 1.
  | Stacksize not measured: no C compiler
  | Checking for scalapack...
  | Testing pdtran()...
  | All pdtran() tests passed.

  Obtaining array dimensions for all initial allocations:
  
  -----------------------------------------------------------------------
  Parsing control.in (first pass over file, find array dimensions only).
  The contents of control.in will be repeated verbatim below
  unless switched off by setting 'verbatim_writeout .false.' .
  in the first line of control.in .
  -----------------------------------------------------------------------
  
  #########################################################################################
  #
  #  Volker Blum, FHI 2009 : Test run input file control.in for simple H2O
  #
  #########################################################################################
  #
  #  Physical model
  #
    xc                 pbe
    vdw_correction_hirshfeld
    spin               none
    relativistic       none
    charge             0.
  #
  #  SCF convergence
  #
    occupation_type    gaussian 0.01
    mixer              pulay
      n_max_pulay        10
      charge_mix_param   0.2
    sc_accuracy_rho    1E-5
    sc_accuracy_eev    1E-3
    sc_accuracy_etot   1E-6
    sc_accuracy_forces 1E-4
    sc_iter_limit      100
  #
  #  Relaxation
  #
  #  relax_geometry   bfgs 1.e-3
  #
  ################################################################################
  #
  #  FHI-aims code project
  #  VB, Fritz-Haber Institut, 2009
  #
  #  Suggested "light" defaults for H atom (to be pasted into control.in file)
  #  Be sure to double-check any results obtained with these settings for post-processing,
  #  e.g., with the "tight" defaults and larger basis sets.
  #
  ################################################################################
    species        H
  #     global species definitions
      nucleus             1
      mass                1.00794
  #
      l_hartree           4
  #
      cut_pot             3.5  1.5  1.0
      basis_dep_cutoff    1e-4
  #
      radial_base         24 5.0
      radial_multiplier   1
      angular_grids       specified
        division   0.2421   50
        division   0.3822  110
        division   0.4799  194
        division   0.5341  302
  #      division   0.5626  434
  #      division   0.5922  590
  #      division   0.6542  770
  #      division   0.6868 1202
  #      outer_grid  770
        outer_grid  302
  ################################################################################
  #
  #  Definition of "minimal" basis
  #
  ################################################################################
  #     valence basis states
      valence      1  s   1.
  #     ion occupancy
      ion_occ      1  s   0.5
  ################################################################################
  #
  #  Suggested additional basis functions. For production calculations,
  #  uncomment them one after another (the most important basis functions are
  #  listed first).
  #
  #  Basis constructed for dimers: 0.5 A, 0.7 A, 1.0 A, 1.5 A, 2.5 A
  #
  ################################################################################
  #  "First tier" - improvements: -1014.90 meV to -62.69 meV
       hydro 2 s 2.1
       hydro 2 p 3.5
  #  "Second tier" - improvements: -12.89 meV to -1.83 meV
  #     hydro 1 s 0.85
  #     hydro 2 p 3.7
  #     hydro 2 s 1.2
  #     hydro 3 d 7
  #  "Third tier" - improvements: -0.25 meV to -0.12 meV
  #     hydro 4 f 11.2
  #     hydro 3 p 4.8
  #     hydro 4 d 9
  #     hydro 3 s 3.2
  ################################################################################
  #
  #  FHI-aims code project
  #  VB, Fritz-Haber Institut, 2009
  #
  #  Suggested "light" defaults for C atom (to be pasted into control.in file)
  #  Be sure to double-check any results obtained with these settings for post-processing,
  #  e.g., with the "tight" defaults and larger basis sets.
  #
  ################################################################################
    species        C
  #     global species definitions
      nucleus             6
      mass                12.0107
  #
      l_hartree           4
  #
      cut_pot             3.5  1.5  1.0
      basis_dep_cutoff    1e-4
  #
      radial_base         34 5.0
      radial_multiplier   1
      angular_grids specified
        division   0.3326   50
        division   0.5710  110
        division   0.7727  194
        division   0.8772  302
  #      division   0.9334  434
  #      division   0.9625  590
  #      division   0.9924  770
  #      division   1.0230  974
  #      division   1.4589 1202
  #     outer_grid  974
       outer_grid 302
  ################################################################################
  #
  #  Definition of "minimal" basis
  #
  ################################################################################
  #     valence basis states
      valence      2  s   2.
      valence      2  p   2.
  #     ion occupancy
      ion_occ      2  s   1.
      ion_occ      2  p   1.
  ################################################################################
  #
  #  Suggested additional basis functions. For production calculations,
  #  uncomment them one after another (the most important basis functions are
  #  listed first).
  #
  #  Constructed for dimers: 1.0 A, 1.25 A, 1.5 A, 2.0 A, 3.0 A
  #
  ################################################################################
  #  "First tier" - improvements: -1214.57 meV to -155.61 meV
       hydro 2 p 1.7
       hydro 3 d 6
       hydro 2 s 4.9
  #  "Second tier" - improvements: -67.75 meV to -5.23 meV
  #     hydro 4 f 9.8
  #     hydro 3 p 5.2
  #     hydro 3 s 4.3
  #     hydro 5 g 14.4
  #     hydro 3 d 6.2
  #  "Third tier" - improvements: -2.43 meV to -0.60 meV
  #     hydro 2 p 5.6
  #     hydro 2 s 1.4
  #     hydro 3 d 4.9
  #     hydro 4 f 11.2
  #  "Fourth tier" - improvements: -0.39 meV to -0.18 meV
  #     hydro 2 p 2.1
  #     hydro 5 g 16.4
  #     hydro 4 d 13.2
  #     hydro 3 s 13.6
  #     hydro 4 f 17.6
  #  Further basis functions - improvements: -0.08 meV and below
  #     hydro 3 s 2
  #     hydro 3 p 6
  #     hydro 4 d 20
  ################################################################################
  #
  #  FHI-aims code project
  #  VB, Fritz-Haber Institut, 2009
  #
  #  Suggested "light" defaults for N atom (to be pasted into control.in file)
  #  Be sure to double-check any results obtained with these settings for post-processing,
  #  e.g., with the "tight" defaults and larger basis sets.
  #
  ################################################################################
    species        N
  #     global species definitions
      nucleus             7
      mass                14.0067
  #
      l_hartree           4
  #
      cut_pot             3.5  1.5  1.0
      basis_dep_cutoff    1e-4
  #
      radial_base         35 5.0
      radial_multiplier   1
      angular_grids       specified
        division   0.2599   50
        division   0.4601  110
        division   0.5885  194
        division   0.6503  302
  #      division   0.6939  434
  #      division   0.7396  590
  #      division   0.7632  770
  #      division   0.8122  974
  #      division   1.1604 1202
  #      outer_grid  974
        outer_grid  302
  ################################################################################
  #
  #  Definition of "minimal" basis
  #
  ################################################################################
  #     valence basis states
      valence      2  s   2.
      valence      2  p   3.
  #     ion occupancy
      ion_occ      2  s   1.
      ion_occ      2  p   2.
  ################################################################################
  #
  #  Suggested additional basis functions. For production calculations,
  #  uncomment them one after another (the most important basis functions are
  #  listed first).
  #
  #  Constructed for dimers: 1.0 A, 1.1 A, 1.5 A, 2.0 A, 3.0 A
  #
  ################################################################################
  #  "First tier" - improvements: -1193.42 meV to -220.60 meV
       hydro 2 p 1.8
       hydro 3 d 6.8
       hydro 3 s 5.8
  #  "Second tier" - improvements: -80.21 meV to -6.86 meV
  #     hydro 4 f 10.8
  #     hydro 3 p 5.8
  #     hydro 1 s 0.8
  #     hydro 5 g 16
  #     hydro 3 d 4.9
  #  "Third tier" - improvements: -4.29 meV to -0.53 meV
  #     hydro 3 s 16
  #     ionic 2 p auto
  #     hydro 3 d 6.6
  #     hydro 4 f 11.6
  #  "Fourth tier" - improvements: -0.75 meV to -0.25 meV
  #     hydro 2 p 4.5
  #     hydro 2 s 2.4
  #     hydro 5 g 14.4
  #     hydro 4 d 14.4
  #     hydro 4 f 16.8
  # Further basis functions - -0.21 meV and below
  #     hydro 3 p 14.8
  #     hydro 3 s 4.4
  #     hydro 3 d 19.6
  #     hydro 5 g 12.8
  ################################################################################
  #
  #  FHI-aims code project
  #  VB, Fritz-Haber Institut, 2009
  #
  #  Suggested "light" defaults for O atom (to be pasted into control.in file)
  #  Be sure to double-check any results obtained with these settings for post-processing,
  #  e.g., with the "tight" defaults and larger basis sets.
  #
  ################################################################################
    species        O
  #     global species definitions
      nucleus             8
      mass                15.9994
  #
      l_hartree           4
  #
      cut_pot             3.5  1.5  1.0
      basis_dep_cutoff    1e-4
  #
      radial_base         36 5.0
      radial_multiplier   1
       angular_grids specified
        division   0.2659   50
        division   0.4451  110
        division   0.6052  194
        division   0.7543  302
  #      division   0.8014  434
  #      division   0.8507  590
  #      division   0.8762  770
  #      division   0.9023  974
  #      division   1.2339 1202
  #      outer_grid 974
        outer_grid 302
  ################################################################################
  #
  #  Definition of "minimal" basis
  #
  ################################################################################
  #     valence basis states
      valence      2  s   2.
      valence      2  p   4.
  #     ion occupancy
      ion_occ      2  s   1.
      ion_occ      2  p   3.
  ################################################################################
  #
  #  Suggested additional basis functions. For production calculations,
  #  uncomment them one after another (the most important basis functions are
  #  listed first).
  #
  #  Constructed for dimers: 1.0 A, 1.208 A, 1.5 A, 2.0 A, 3.0 A
  #
  ################################################################################
  #  "First tier" - improvements: -699.05 meV to -159.38 meV
       hydro 2 p 1.8
       hydro 3 d 7.6
       hydro 3 s 6.4
  #  "Second tier" - improvements: -49.91 meV to -5.39 meV
  #     hydro 4 f 11.6
  #     hydro 3 p 6.2
  #     hydro 3 d 5.6
  #     hydro 5 g 17.6
  #     hydro 1 s 0.75
  #  "Third tier" - improvements: -2.83 meV to -0.50 meV
  #     ionic 2 p auto
  #     hydro 4 f 10.8
  #     hydro 4 d 4.7
  #     hydro 2 s 6.8
  #  "Fourth tier" - improvements: -0.40 meV to -0.12 meV
  #     hydro 3 p 5
  #     hydro 3 s 3.3
  #     hydro 5 g 15.6
  #     hydro 4 f 17.6
  #     hydro 4 d 14
  # Further basis functions - -0.08 meV and below
  #     hydro 3 s 2.1
  #     hydro 4 d 11.6
  #     hydro 3 p 16
  #     hydro 2 s 17.2
  
  -----------------------------------------------------------------------
  Completed first pass over input file control.in .
  -----------------------------------------------------------------------
  
  
  -----------------------------------------------------------------------
  Parsing geometry.in (first pass over file, find array dimensions only).
  The contents of geometry.in will be repeated verbatim below
  unless switched off by setting 'verbatim_writeout .false.' .
  in the first line of geometry.in .
  -----------------------------------------------------------------------
  
  atom  0.00000 0.00000 0.00000 C
  atom  1.09300 0.00000 0.00000 H
  atom  -0.47961 0.00000 -1.41207 N
  atom  -0.10922 0.82618 -1.88331 H
  atom  -0.14635 -0.84554 -1.87046 H
  atom  -0.49584 1.26211 0.72868 C
  atom  -1.58789 1.28919 0.74431 H
  atom  -0.13407 1.27425 1.75947 H
  atom  -0.13407 2.16087 0.22380 H
  atom  -0.39425 -1.28861 0.74398 C
  atom  -0.10189 -1.56493 1.88303 O
  atom  -1.10210 -2.13717 0.06896 O
  atom  -1.89817 -2.13334 0.62685 H
  
  -----------------------------------------------------------------------
  Completed first pass over input file geometry.in .
  -----------------------------------------------------------------------
  

  Basic array size parameters:
  | Number of species                 :        4
  | Number of atoms                   :       13
  | Max. basis fn. angular momentum   :        2
  | Max. atomic/ionic basis occupied n:        2
  | Max. number of basis fn. types    :        2
  | Max. radial fns per species/type  :        3
  | Max. logarithmic grid size        :     1301
  | Max. radial integration grid size :       36
  | Max. angular integration grid size:      302
  | Max. angular grid division number :        8
  | Radial grid for Hartree potential :     1301
  | Number of spin channels           :        1

------------------------------------------------------------
          Reading file control.in.
------------------------------------------------------------
  XC: Using PBE gradient-corrected functionals.
  Spin treatment: No spin polarisation.
  Non-relativistic treatment of kinetic energy.
  Charge =   0.000000E+00: Neutral system requested explicitly.
  Occupation type: Gaussian broadening, width =   0.100000E-01 eV.
  Using pulay charge density mixing.
  Pulay mixing - number of memorized iterations:   10
  Charge density mixing - mixing parameter:     0.2000
  Convergence accuracy of self-consistent charge density:  0.1000E-04
  Convergence accuracy of sum of eigenvalues:  0.1000E-02
  Convergence accuracy of total energy:  0.1000E-05
  Convergence accuracy of forces:  0.1000E-03
  Maximum number of s.-c. iterations  :   100
 
  Reading configuration options for species H                   .
  | Found nuclear charge :   1.0000
  | Found atomic mass :    1.00794000000000      amu
  | Found l_max for Hartree potential  :   4
  | Found cutoff potl. onset [A], width [A], scale factor :    3.50000    1.50000    1.00000
  | Threshold for basis-dependent cutoff potential is   0.100000E-03
  | Found data for basic radial integration grid :    24 points, outermost radius =    5.000 A
  | Found multiplier for basic radial grid :   1
  | Found angular grid specification: user-specified.
  | Specified grid contains     5 separate shells.
  | Check grid settings after all constraints further below.
  | Found free-atom valence shell :  1 s   1.000
  | No ionic wave fns used. Skipping ion_occ.
  | Found hydrogenic basis function :  2 s   2.100
  | Found hydrogenic basis function :  2 p   3.500
  Species H                   : Missing cutoff potential type.
  Defaulting to exp(1/x)/(1-x)^2 type cutoff potential.
  Species H : No 'logarithmic' tag. Using default grid for free atom:
  | Default logarithmic grid data [bohr] : 0.1000E-03 0.1000E+03 0.1012E+01
  Species H : On-site basis accuracy parameter (for Gram-Schmidt orthonormalisation) not specified.
  Using default value basis_acc =  0.1000000E-03.
  Species H                   : Using default innermost maximum threshold i_radial=  2 for radial functions.
  Species H                   : Default cutoff onset for free atom density etc. : 0.35000000E+01 AA.
  Species H                   : Basic radial grid will be enhanced according to radial_multiplier =   1, to contain    24 grid points.
 
  Reading configuration options for species C                   .
  | Found nuclear charge :   6.0000
  | Found atomic mass :    12.0107000000000      amu
  | Found l_max for Hartree potential  :   4
  | Found cutoff potl. onset [A], width [A], scale factor :    3.50000    1.50000    1.00000
  | Threshold for basis-dependent cutoff potential is   0.100000E-03
  | Found data for basic radial integration grid :    34 points, outermost radius =    5.000 A
  | Found multiplier for basic radial grid :   1
  | Found angular grid specification: user-specified.
  | Specified grid contains     5 separate shells.
  | Check grid settings after all constraints further below.
  | Found free-atom valence shell :  2 s   2.000
  | Found free-atom valence shell :  2 p   2.000
  | No ionic wave fns used. Skipping ion_occ.
  | No ionic wave fns used. Skipping ion_occ.
  | Found hydrogenic basis function :  2 p   1.700
  | Found hydrogenic basis function :  3 d   6.000
  | Found hydrogenic basis function :  2 s   4.900
  Species C                   : Missing cutoff potential type.
  Defaulting to exp(1/x)/(1-x)^2 type cutoff potential.
  Species C : No 'logarithmic' tag. Using default grid for free atom:
  | Default logarithmic grid data [bohr] : 0.1000E-03 0.1000E+03 0.1012E+01
  Species C : On-site basis accuracy parameter (for Gram-Schmidt orthonormalisation) not specified.
  Using default value basis_acc =  0.1000000E-03.
  Species C                   : Using default innermost maximum threshold i_radial=  2 for radial functions.
  Species C                   : Default cutoff onset for free atom density etc. : 0.35000000E+01 AA.
  Species C                   : Basic radial grid will be enhanced according to radial_multiplier =   1, to contain    34 grid points.
 
  Reading configuration options for species N                   .
  | Found nuclear charge :   7.0000
  | Found atomic mass :    14.0067000000000      amu
  | Found l_max for Hartree potential  :   4
  | Found cutoff potl. onset [A], width [A], scale factor :    3.50000    1.50000    1.00000
  | Threshold for basis-dependent cutoff potential is   0.100000E-03
  | Found data for basic radial integration grid :    35 points, outermost radius =    5.000 A
  | Found multiplier for basic radial grid :   1
  | Found angular grid specification: user-specified.
  | Specified grid contains     5 separate shells.
  | Check grid settings after all constraints further below.
  | Found free-atom valence shell :  2 s   2.000
  | Found free-atom valence shell :  2 p   3.000
  | No ionic wave fns used. Skipping ion_occ.
  | No ionic wave fns used. Skipping ion_occ.
  | Found hydrogenic basis function :  2 p   1.800
  | Found hydrogenic basis function :  3 d   6.800
  | Found hydrogenic basis function :  3 s   5.800
  Species N                   : Missing cutoff potential type.
  Defaulting to exp(1/x)/(1-x)^2 type cutoff potential.
  Species N : No 'logarithmic' tag. Using default grid for free atom:
  | Default logarithmic grid data [bohr] : 0.1000E-03 0.1000E+03 0.1012E+01
  Species N : On-site basis accuracy parameter (for Gram-Schmidt orthonormalisation) not specified.
  Using default value basis_acc =  0.1000000E-03.
  Species N                   : Using default innermost maximum threshold i_radial=  2 for radial functions.
  Species N                   : Default cutoff onset for free atom density etc. : 0.35000000E+01 AA.
  Species N                   : Basic radial grid will be enhanced according to radial_multiplier =   1, to contain    35 grid points.
 
  Reading configuration options for species O                   .
  | Found nuclear charge :   8.0000
  | Found atomic mass :    15.9994000000000      amu
  | Found l_max for Hartree potential  :   4
  | Found cutoff potl. onset [A], width [A], scale factor :    3.50000    1.50000    1.00000
  | Threshold for basis-dependent cutoff potential is   0.100000E-03
  | Found data for basic radial integration grid :    36 points, outermost radius =    5.000 A
  | Found multiplier for basic radial grid :   1
  | Found angular grid specification: user-specified.
  | Specified grid contains     5 separate shells.
  | Check grid settings after all constraints further below.
  | Found free-atom valence shell :  2 s   2.000
  | Found free-atom valence shell :  2 p   4.000
  | No ionic wave fns used. Skipping ion_occ.
  | No ionic wave fns used. Skipping ion_occ.
  | Found hydrogenic basis function :  2 p   1.800
  | Found hydrogenic basis function :  3 d   7.600
  | Found hydrogenic basis function :  3 s   6.400
  Species O                   : Missing cutoff potential type.
  Defaulting to exp(1/x)/(1-x)^2 type cutoff potential.
  Species O : No 'logarithmic' tag. Using default grid for free atom:
  | Default logarithmic grid data [bohr] : 0.1000E-03 0.1000E+03 0.1012E+01
  Species O : On-site basis accuracy parameter (for Gram-Schmidt orthonormalisation) not specified.
  Using default value basis_acc =  0.1000000E-03.
  Species O                   : Using default innermost maximum threshold i_radial=  2 for radial functions.
  Species O                   : Default cutoff onset for free atom density etc. : 0.35000000E+01 AA.
  Species O                   : Basic radial grid will be enhanced according to radial_multiplier =   1, to contain    36 grid points.
 
  Finished reading input file 'control.in'. Consistency checks are next.
 
  MPI_IN_PLACE appears to work with this MPI implementation.
  | Keeping use_mpi_in_place .true. (see manual).
  Target number of points in a grid batch is not set. Defaulting to  100
  Method for grid partitioning is not set. Defaulting to parallel hash+maxmin partitioning.
  Batch size limit is not set. Defaulting to    200
  By default, will store active basis functions for each batch.
  If in need of memory, prune_basis_once .false. can be used to disable this option.
  communication_type for Hartree potential was not specified.
  Defaulting to calc_hartree .
  Pulay mixer: Number of initial linear mixing iterations not set.
  Defaulting to    0 iterations.
  Work space size for distributed Hartree potential not set.
  Defaulting to   0.200000E+03 MB.
  Algorithm-dependent basis array size parameters:
  | n_max_pulay                         :       10
  Presetting      1001 iterations before the initial mixing cycle
  is restarted anyway using the sc_init_iter criterion / keyword.
  Presetting a factor      1.000 between actual scf density residual
  and density convergence criterion sc_accuracy_rho below which sc_init_iter
  takes no effect.
  Geometry relaxation not requested: no relaxation will be performed.
  Handling of forces: Unphysical translation and rotation will be removed from forces.
  No accuracy limit for integral partition fn. given. Defaulting to  0.1000E-14.
  No threshold value for u(r) in integrations given. Defaulting to  0.1000E-05.
  No accuracy for occupation numbers given. Defaulting to  0.1000E-12.
  No threshold value for occupation numbers given. Defaulting to  0.0000E+00.
  No accuracy for fermi level given. Defaulting to  0.1000E-19.
  Maximum # of iterations to find E_F not set. Defaulting to  200.
  Preferred method for the eigenvalue solver ('KS_method') not specified in 'control.in'.
  Defaulting to serial version, 'lapack_fast'.
  Will not use alltoall communication since running on < 1024 CPUs.
  Threshold for basis singularities not set.
  Default threshold for basis singularities:  0.1000E-04
  partition_type (choice of integration weights) for integrals was not specified.
  | Using a version of the partition function of Stratmann and coworkers ('stratmann_smoother').
  | At each grid point, the set of atoms used to build the partition table is smoothly restricted to
  | only those atoms whose free-atom density would be non-zero at that grid point.
  Partitioning for Hartree potential was not defined. Using partition_type for integrals.
  | Adjusted default value of keyword multip_moments_threshold to:       0.10000000E-11
  | This value may affect high angular momentum components of the Hartree potential in periodic systems.
  No q(lm)/r^(l+1) cutoff set for long-range Hartree potential.
  | Using default value of  0.100000E-09 .
  | Verify using the multipole_threshold keyword.
  Defaulting to new monopole extrapolation.
  Density update method: automatic selection selected.
------------------------------------------------------------


------------------------------------------------------------
          Reading geometry description geometry.in.
------------------------------------------------------------
  Input structure read successfully.
  The structure contains       13 atoms,  and a total of         48.000 electrons.

  Input geometry:
  | No unit cell requested.
  | Atomic structure:
  |       Atom                x [A]            y [A]            z [A]
  |    1: Species C             0.00000000        0.00000000        0.00000000
  |    2: Species H             1.09300000        0.00000000        0.00000000
  |    3: Species N            -0.47961000        0.00000000       -1.41207000
  |    4: Species H            -0.10922000        0.82618000       -1.88331000
  |    5: Species H            -0.14635000       -0.84554000       -1.87046000
  |    6: Species C            -0.49584000        1.26211000        0.72868000
  |    7: Species H            -1.58789000        1.28919000        0.74431000
  |    8: Species H            -0.13407000        1.27425000        1.75947000
  |    9: Species H            -0.13407000        2.16087000        0.22380000
  |   10: Species C            -0.39425000       -1.28861000        0.74398000
  |   11: Species O            -0.10189000       -1.56493000        1.88303000
  |   12: Species O            -1.10210000       -2.13717000        0.06896000
  |   13: Species H            -1.89817000       -2.13334000        0.62685000
  |

  | The smallest distance between any two atoms is         0.97210255 AA.
  |
  | The first atom of this pair is atom number                     12 .
  | The second atom of this pair is atom number                    13 .

  Number of empty states per atom not set in control.in - providing a guess from actual geometry.
  | Total number of empty states used during s.c.f. cycle:       29
  If you use a very high smearing, use empty_states (per atom!) in control.in to increase this value.

  Structure-dependent array size parameters: 
  | Maximum number of distinct radial functions  :       21
  | Maximum number of basis functions            :      119
  | Number of Kohn-Sham states (occupied + empty):       53
------------------------------------------------------------

------------------------------------------------------------
          Preparing all fixed parts of the calculation.
------------------------------------------------------------
  Determining machine precision:
    2.225073858507201E-308
  Setting up grids for atomic and cluster calculations.

  Creating wave function, potential, and density for free atoms.

  Species: H

  List of occupied orbitals and eigenvalues:
    n    l              occ      energy [Ha]    energy [eV]
    1    0           1.0000        -0.237589        -6.4651


  Species: C

  List of occupied orbitals and eigenvalues:
    n    l              occ      energy [Ha]    energy [eV]
    1    0           2.0000       -10.038835      -273.1706
    2    0           2.0000        -0.502696       -13.6791
    2    1           2.0000        -0.191971        -5.2238


  Species: N

  List of occupied orbitals and eigenvalues:
    n    l              occ      energy [Ha]    energy [eV]
    1    0           2.0000       -14.128000      -384.4424
    2    0           2.0000        -0.681077       -18.5330
    2    1           3.0000        -0.259788        -7.0692


  Species: O

  List of occupied orbitals and eigenvalues:
    n    l              occ      energy [Ha]    energy [eV]
    1    0           2.0000       -18.898188      -514.2459
    2    0           2.0000        -0.878505       -23.9053
    2    1           4.0000        -0.331779        -9.0282

  Creating fixed part of basis set: Ionic, confined, hydrogenic.
 
  H                    hydrogenic:
 
  List of hydrogenic basis orbitals: 
    n    l      effective z      eigenvalue [eV]  inner max. [A]     outer max. [A]     outer radius [A]   
    2    0         2.100000       -14.9728           0.193243           1.317208           4.583499
    2    1         3.500000       -41.6669           0.602369           0.602369           3.723403
 
 
  C                    hydrogenic:
 
  List of hydrogenic basis orbitals: 
    n    l      effective z      eigenvalue [eV]  inner max. [A]     outer max. [A]     outer radius [A]   
    2    1         1.700000        -9.7616           1.230570           1.230570           4.607917
    3    2         6.000000       -54.4224           0.792453           0.792453           3.883070
    2    0         4.900000       -81.6679           0.082559           0.562749           3.078220
 
 
  N                    hydrogenic:
 
  List of hydrogenic basis orbitals: 
    n    l      effective z      eigenvalue [eV]  inner max. [A]     outer max. [A]     outer radius [A]   
    2    1         1.800000       -10.9749           1.177451           1.177451           4.573712
    3    2         6.800000       -69.9026           0.704619           0.704619           3.538137
    3    0         5.800000       -50.8545           0.067388           1.191934           4.250239
 
 
  O                    hydrogenic:
 
  List of hydrogenic basis orbitals: 
    n    l      effective z      eigenvalue [eV]  inner max. [A]     outer max. [A]     outer radius [A]   
    2    1         1.800000       -10.9749           1.164242           1.164242           4.578029
    3    2         7.600000       -87.3180           0.624125           0.624125           3.251020
    3    0         6.400000       -61.9207           0.061167           1.081902           4.001998
 

  Adding cutoff potential to free-atom effective potential.
  Creating atomic-like basis functions for current effective potential.

  Species H                   :

  List of atomic basis orbitals and eigenvalues:
    n    l      energy [Ha]    energy [eV]    outer radius [A]
    1    0        -0.237589        -6.4651       4.527807


  Species C                   :

  List of atomic basis orbitals and eigenvalues:
    n    l      energy [Ha]    energy [eV]    outer radius [A]
    1    0       -10.038835      -273.1706       1.934409
    2    0        -0.502696       -13.6791       4.496620
    2    1        -0.191971        -5.2238       4.551928


  Species N                   :

  List of atomic basis orbitals and eigenvalues:
    n    l      energy [Ha]    energy [eV]    outer radius [A]
    1    0       -14.128000      -384.4424       1.637919
    2    0        -0.681077       -18.5330       4.463241
    2    1        -0.259788        -7.0692       4.518138


  Species O                   :

  List of atomic basis orbitals and eigenvalues:
    n    l      energy [Ha]    energy [eV]    outer radius [A]
    1    0       -18.898188      -514.2459       1.415765
    2    0        -0.878505       -23.9053       4.413171
    2    1        -0.331779        -9.0282       4.522403

  Assembling full basis from fixed parts.
  | Species H :   atomic orbital   1 s accepted.
  | Species H :    hydro orbital   2 s accepted.
  | Species H :    hydro orbital   2 p accepted.
  | Species C :   atomic orbital   1 s accepted.
  | Species C :    hydro orbital   2 s accepted.
  | Species C :   atomic orbital   2 s accepted.
  | Species C :   atomic orbital   2 p accepted.
  | Species C :    hydro orbital   2 p accepted.
  | Species C :    hydro orbital   3 d accepted.
  | Species N :   atomic orbital   1 s accepted.
  | Species N :    hydro orbital   3 s accepted.
  | Species N :   atomic orbital   2 s accepted.
  | Species N :   atomic orbital   2 p accepted.
  | Species N :    hydro orbital   2 p accepted.
  | Species N :    hydro orbital   3 d accepted.
  | Species O :   atomic orbital   1 s accepted.
  | Species O :    hydro orbital   3 s accepted.
  | Species O :   atomic orbital   2 s accepted.
  | Species O :   atomic orbital   2 p accepted.
  | Species O :    hydro orbital   2 p accepted.
  | Species O :    hydro orbital   3 d accepted.
 
  Basis size parameters after reduction:
  | Total number of radial functions:       21
  | Total number of basis functions :      119
 
  Per-task memory consumption for arrays in subroutine allocate_ext:
  |           5.250512MB.
  Testing on-site integration grid accuracy.
  |  Species  Function  <phi|h_atom|phi> (log., in eV)  <phi|h_atom|phi> (rad., in eV)
           1        1                 -6.4663192853                 -6.4651273558
           1        2                 13.7111246313                 13.7170609718
           1        3                 25.2673269279                 25.2674696378
           2        4               -273.1705927641               -273.1705631568
           2        5                -10.7109323383                -10.7107120029
           2        6                 17.4381822266                 17.4352413244
           2        7                 -5.2255326521                 -5.2270484734
           2        8                  8.6835629259                  8.6603288385
           2        9                 27.4952418996                 27.4953360207
           3       10               -384.4424306495               -384.4423701208
           3       11                 12.5842251816                 12.5842222903
           3       12                -15.7264628251                -15.7264433455
           3       13                 -7.0696854293                 -7.0701769954
           3       14                  8.8090390882                  8.7901077751
           3       15                 35.9586762123                 35.9588528632
           4       16               -514.2458688638               -514.2457643834
           4       17                 15.1795651126                 15.1795290741
           4       18                -21.5359799773                -21.5360846186
           4       19                 -9.0283069236                 -9.0284644067
           4       20                  8.3027758564                  8.2834874195
           4       21                 45.8339351984                 45.8338762259

  Preparing densities etc. for the partition functions (integrals / Hartree potential).

  Preparations completed.
  max(cpu_time)          :      0.148 s.
  Wall clock time (cpu1) :      0.149 s.
------------------------------------------------------------

------------------------------------------------------------
          Begin self-consistency loop: Initialization.

          Date     :  20200902, Time     :  102855.425
------------------------------------------------------------

  Initializing index lists of integration centers etc. from given atomic structure:
  | Number of centers in hartree potential         :        13
  | Number of centers in hartree multipole         :        13
  | Number of centers in electron density summation:        13
  | Number of centers in basis integrals           :        13
  | Number of centers in integrals                 :        13
  | Number of centers in hamiltonian               :        13
  Partitioning the integration grid into batches with parallel hashing+maxmin method.
  | Number of batches:      954
  | Maximal batch size:     139
  | Minimal batch size:      66
  | Average batch size:      73.004
  | Standard deviation of batch sizes:      17.772

  Integration load balanced across     1 MPI tasks.
  Work distribution over tasks is as follows:
  Task     0 has      69646 integration points.
  Initializing partition tables, free-atom densities, potentials, etc. across the integration grid (initialize_grid_storage).
  | initialize_grid_storage: Actual outermost partition radius vs. multipole_radius_free
  | (-- VB: in principle, multipole_radius_free should be larger, hence this output)
  | Species        1: Confinement radius =              4.999999999999999 AA, multipole_radius_free =              5.054417573612229 AA.
  | Species        1: outer_partition_radius set to              5.054417573612229 AA .
  | Species        2: Confinement radius =              4.999999999999999 AA, multipole_radius_free =              5.019602836301480 AA.
  | Species        2: outer_partition_radius set to              5.019602836301480 AA .
  | Species        3: Confinement radius =              4.999999999999999 AA, multipole_radius_free =              5.043624274424571 AA.
  | Species        3: outer_partition_radius set to              5.043624274424571 AA .
  | Species        4: Confinement radius =              4.999999999999999 AA, multipole_radius_free =              5.048384829883283 AA.
  | Species        4: outer_partition_radius set to              5.048384829883283 AA .
  | Original list of interatomic distances with          13 x         13 entries is created.
  | Net number of integration points:    69646
  | of which are non-zero points    :    59578
  Renormalizing the initial density to the exact electron count on the 3D integration grid.
  | Initial density: Formal number of electrons (from input files) :      48.0000000000
  | Integrated number of electrons on 3D grid     :      47.9999186650
  | Charge integration error                      :      -0.0000813350
  | Normalization factor for density and gradient :       1.0000016945
  Obtaining max. number of non-zero basis functions in each batch (get_n_compute_maxes).
  | Maximal number of non-zero basis functions:      119 in task     0
  Selecting the method for density update.
  Loop over occupied states selected for charge density update.
  Allocating        0.050 MB for KS_eigenvector
  Integrating Hamiltonian matrix: batch-based integration.
  Time summed over all CPUs for integration: real work        0.496 s, elapsed        0.496 s
  Integrating overlap matrix.
  Time summed over all CPUs for integration: real work        0.210 s, elapsed        0.210 s

  Updating Kohn-Sham eigenvalues and eigenvectors using ELSI and the ELPA eigensolver.
  Overlap matrix is nonsingular
  | Lowest eigenvalue of overlap  :  0.52E-02
  | Highest eigenvalue of overlap :  0.61E+01
  Finished singularity check of overlap matrix
  | Time :     0.002 s
  Finished Cholesky decomposition
  | Time :     0.000 s
  Finished transformation to standard eigenproblem
  | Time :     0.000 s
  Starting LAPACK eigensolver
  Finished solving standard eigenproblem
  | Time :     0.002 s
  Finished back-transformation of eigenvectors
  | Time :     0.000 s

  Obtaining occupation numbers and chemical potential using ELSI.
  | Chemical potential (Fermi level):    -9.29370602eV
  Writing Kohn-Sham eigenvalues.

  State    Occupation    Eigenvalue [Ha]    Eigenvalue [eV]
      1       2.00000         -19.007682         -517.22536
      2       2.00000         -18.977594         -516.40660
      3       2.00000         -14.245795         -387.64781
      4       2.00000         -10.166675         -276.64930
      5       2.00000         -10.141263         -275.95781
      6       2.00000         -10.131983         -275.70529
      7       2.00000          -1.185206          -32.25109
      8       2.00000          -1.095118          -29.79968
      9       2.00000          -0.991090          -26.96893
     10       2.00000          -0.860975          -23.42832
     11       2.00000          -0.758534          -20.64076
     12       2.00000          -0.677776          -18.44322
     13       2.00000          -0.622325          -16.93433
     14       2.00000          -0.601648          -16.37168
     15       2.00000          -0.598065          -16.27419
     16       2.00000          -0.570353          -15.52010
     17       2.00000          -0.551514          -15.00747
     18       2.00000          -0.525638          -14.30333
     19       2.00000          -0.516356          -14.05076
     20       2.00000          -0.508788          -13.84483
     21       2.00000          -0.463091          -12.60133
     22       2.00000          -0.426589          -11.60809
     23       2.00000          -0.403017          -10.96665
     24       2.00000          -0.385406          -10.48744
     25       0.00000          -0.161170           -4.38567
     26       0.00000          -0.061764           -1.68069
     27       0.00000          -0.032537           -0.88536
     28       0.00000          -0.021397           -0.58224
     29       0.00000           0.006219            0.16923
     30       0.00000           0.011433            0.31112
     31       0.00000           0.014737            0.40101
     32       0.00000           0.030055            0.81785
     33       0.00000           0.048070            1.30804
     34       0.00000           0.058706            1.59746
     35       0.00000           0.079738            2.16978
     36       0.00000           0.134263            3.65348
     37       0.00000           0.158918            4.32437
     38       0.00000           0.205398            5.58915
     39       0.00000           0.213576            5.81170
     40       0.00000           0.221688            6.03244
     41       0.00000           0.259854            7.07098
     42       0.00000           0.272519            7.41561
     43       0.00000           0.289333            7.87315
     44       0.00000           0.299460            8.14872
     45       0.00000           0.317532            8.64050
     46       0.00000           0.362689            9.86928
     47       0.00000           0.374545           10.19188
     48       0.00000           0.416463           11.33253
     49       0.00000           0.462335           12.58077
     50       0.00000           0.467442           12.71974
     51       0.00000           0.493573           13.43081
     52       0.00000           0.524405           14.26979
     53       0.00000           0.576470           15.68654

  Highest occupied state (VBM) at    -10.48743975 eV
  | Occupation number:      2.00000000

  Lowest unoccupied state (CBM) at    -4.38566913 eV
  | Occupation number:      0.00000000

  Overall HOMO-LUMO gap:      6.10177063 eV.
  Calculating total energy contributions from superposition of free atom densities.

  Total energy components:
  | Sum of eigenvalues            :        -188.82496580 Ha       -5138.18874766 eV
  | XC energy correction          :         -41.78287199 Ha       -1136.96979530 eV
  | XC potential correction       :          53.71189585 Ha        1461.57505032 eV
  | Free-atom electrostatic energy:        -146.86522195 Ha       -3996.40602417 eV
  | Hartree energy correction     :           0.00000000 Ha           0.00000000 eV
  | vdW energy correction         :           0.00000000 Ha           0.00000000 eV
  | Entropy correction            :           0.00000000 Ha           0.00000000 eV
  | ---------------------------
  | Total energy                  :        -323.76116389 Ha       -8809.98951681 eV
  | Total energy, T -> 0          :        -323.76116389 Ha       -8809.98951681 eV  <-- do not rely on this value for anything but (periodic) metals
  | Electronic free energy        :        -323.76116389 Ha       -8809.98951681 eV

  Derived energy quantities:
  | Kinetic energy                :         320.48344921 Ha        8720.79836234 eV
  | Electrostatic energy          :        -602.46174111 Ha      -16393.81808385 eV
  | Energy correction for multipole
  | error in Hartree potential    :           0.00000000 Ha           0.00000000 eV
  | Sum of eigenvalues per atom                           :        -395.24528828 eV
  | Total energy (T->0) per atom                          :        -677.69150129 eV  <-- do not rely on this value for anything but (periodic) metals
  | Electronic free energy per atom                       :        -677.69150129 eV
  Initialize hartree_potential_storage
  Max. number of atoms included in rho_multipole:           13

  End scf initialization - timings             :  max(cpu_time)    wall_clock(cpu1)
  | Time for scf. initialization               :        1.150 s           1.151 s
  | Boundary condition initialization          :        0.000 s           0.000 s
  | Integration                                :        0.707 s           0.707 s
  | Solution of K.-S. eqns.                    :        0.004 s           0.004 s
  | Grid partitioning                          :        0.112 s           0.112 s
  | Preloading free-atom quantities on grid    :        0.002 s           0.003 s
  | Free-atom superposition energy             :        0.084 s           0.084 s
  | Total energy evaluation                    :        0.000 s           0.000 s

  Partial memory accounting:
  | Current value for overall tracked memory usage on task 0  :           0.165 MB
  | Peak value for overall tracked memory usage on task 0     :           0.678 MB after allocating wave
  | Largest tracked array allocation on task 0 so far         :           0.132 MB  when allocating H_times_psi
  Note:  These values currently only include a subset of arrays which are explicitly tracked.
  The "true" memory usage will be greater.
------------------------------------------------------------

------------------------------------------------------------
          Begin self-consistency iteration #    1

  Date     :  20200902, Time     :  102856.577
------------------------------------------------------------
  Evaluating new KS density.
  Integration grid: deviation in total charge (<rho> - N_e) =   6.394885E-14
  Pulay mixing of updated and previous charge densities.

  Evaluating partitioned Hartree potential by multipole expansion.
  | Analytical far-field extrapolation by fixed multipoles:
  | Hartree multipole sum: apparent total charge =  -0.188770E-03
  Summing up the Hartree potential.
  Time summed over all CPUs for potential: real work        0.282 s, elapsed        0.282 s
  | RMS charge density error from multipole expansion :   0.583882E-02

  Integrating Hamiltonian matrix: batch-based integration.
  Time summed over all CPUs for integration: real work        0.494 s, elapsed        0.494 s

  Updating Kohn-Sham eigenvalues and eigenvectors using ELSI and the ELPA eigensolver.
  Finished Cholesky decomposition
  | Time :     0.000 s
  Finished transformation to standard eigenproblem
  | Time :     0.000 s
  Starting LAPACK eigensolver
  Finished solving standard eigenproblem
  | Time :     0.002 s
  Finished back-transformation of eigenvectors
  | Time :     0.000 s

  Obtaining occupation numbers and chemical potential using ELSI.
  | Chemical potential (Fermi level):    -8.10077867eV
  Writing Kohn-Sham eigenvalues.

  State    Occupation    Eigenvalue [Ha]    Eigenvalue [eV]
      1       2.00000         -18.896415         -514.19761
      2       2.00000         -18.839941         -512.66087
      3       2.00000         -14.094722         -383.53690
      4       2.00000         -10.116986         -275.29719
      5       2.00000         -10.061990         -273.80069
      6       2.00000         -10.031667         -272.97554
      7       2.00000          -1.133959          -30.85658
      8       2.00000          -1.032089          -28.08458
      9       2.00000          -0.920372          -25.04460
     10       2.00000          -0.794692          -21.62468
     11       2.00000          -0.707396          -19.24923
     12       2.00000          -0.629311          -17.12442
     13       2.00000          -0.564326          -15.35610
     14       2.00000          -0.547738          -14.90470
     15       2.00000          -0.535736          -14.57812
     16       2.00000          -0.510304          -13.88609
     17       2.00000          -0.490616          -13.35034
     18       2.00000          -0.466035          -12.68146
     19       2.00000          -0.453354          -12.33638
     20       2.00000          -0.445141          -12.11289
     21       2.00000          -0.403900          -10.99067
     22       2.00000          -0.367936          -10.01206
     23       2.00000          -0.330748           -9.00011
     24       2.00000          -0.312777           -8.51111
     25       0.00000          -0.125957           -3.42746
     26       0.00000          -0.038271           -1.04141
     27       0.00000          -0.005882           -0.16005
     28       0.00000           0.016701            0.45446
     29       0.00000           0.040891            1.11271
     30       0.00000           0.042177            1.14770
     31       0.00000           0.058034            1.57919
     32       0.00000           0.068450            1.86263
     33       0.00000           0.088976            2.42116
     34       0.00000           0.099494            2.70736
     35       0.00000           0.120531            3.27982
     36       0.00000           0.161575            4.39668
     37       0.00000           0.184352            5.01646
     38       0.00000           0.239003            6.50361
     39       0.00000           0.241959            6.58404
     40       0.00000           0.259566            7.06315
     41       0.00000           0.294487            8.01339
     42       0.00000           0.304862            8.29571
     43       0.00000           0.329714            8.97197
     44       0.00000           0.335028            9.11658
     45       0.00000           0.358321            9.75040
     46       0.00000           0.407488           11.08832
     47       0.00000           0.410529           11.17107
     48       0.00000           0.453683           12.34533
     49       0.00000           0.501869           13.65655
     50       0.00000           0.505716           13.76123
     51       0.00000           0.522525           14.21864
     52       0.00000           0.557070           15.15865
     53       0.00000           0.616993           16.78923

  Highest occupied state (VBM) at     -8.51110689 eV
  | Occupation number:      2.00000000

  Lowest unoccupied state (CBM) at    -3.42746360 eV
  | Occupation number:      0.00000000

  Overall HOMO-LUMO gap:      5.08364329 eV.

  Total energy components:
  | Sum of eigenvalues            :        -185.37630059 Ha       -5044.34579251 eV
  | XC energy correction          :         -42.11363549 Ha       -1145.97032794 eV
  | XC potential correction       :          54.14213814 Ha        1473.28253846 eV
  | Free-atom electrostatic energy:        -146.86522195 Ha       -3996.40602417 eV
  | Hartree energy correction     :          -3.36416400 Ha         -91.54356018 eV
  | vdW energy correction         :           0.00000000 Ha           0.00000000 eV
  | Entropy correction            :           0.00000000 Ha           0.00000000 eV
  | ---------------------------
  | Total energy                  :        -323.57718389 Ha       -8804.98316634 eV
  | Total energy, T -> 0          :        -323.57718389 Ha       -8804.98316634 eV  <-- do not rely on this value for anything but (periodic) metals
  | Electronic free energy        :        -323.57718389 Ha       -8804.98316634 eV

  Derived energy quantities:
  | Kinetic energy                :         322.28629423 Ha        8769.85627137 eV
  | Electrostatic energy          :        -603.74984264 Ha      -16428.86910978 eV
  | Energy correction for multipole
  | error in Hartree potential    :           0.01212138 Ha           0.32983956 eV
  | Sum of eigenvalues per atom                           :        -388.02659942 eV
  | Total energy (T->0) per atom                          :        -677.30639741 eV  <-- do not rely on this value for anything but (periodic) metals
  | Electronic free energy per atom                       :        -677.30639741 eV

  Self-consistency convergence accuracy:
  | Change of charge density      :  0.5886E+00
  | Change of sum of eigenvalues  :  0.9384E+02 eV
  | Change of total energy        :  0.5006E+01 eV

  End self-consistency iteration #     1       :  max(cpu_time)    wall_clock(cpu1)
  | Time for this iteration                    :        1.188 s           1.188 s
  | Charge density update                      :        0.394 s           0.394 s
  | Density mixing                             :        0.006 s           0.005 s
  | Hartree multipole update                   :        0.009 s           0.009 s
  | Hartree multipole summation                :        0.283 s           0.284 s
  | Integration                                :        0.494 s           0.494 s
  | Solution of K.-S. eqns.                    :        0.002 s           0.002 s
  | Total energy evaluation                    :        0.000 s           0.000 s

  Partial memory accounting:
  | Current value for overall tracked memory usage on task 0  :           0.165 MB
  | Peak value for overall tracked memory usage on task 0     :           0.695 MB after allocating gradient_basis_wave
  | Largest tracked array allocation on task 0 so far         :           0.397 MB  when allocating gradient_basis_wave
  Note:  These values currently only include a subset of arrays which are explicitly tracked.
  The "true" memory usage will be greater.
------------------------------------------------------------

------------------------------------------------------------
          Begin self-consistency iteration #    2

  Date     :  20200902, Time     :  102857.768
------------------------------------------------------------
  Evaluating new KS density.
  Integration grid: deviation in total charge (<rho> - N_e) =  -2.842171E-14
  Pulay mixing of updated and previous charge densities.

  Evaluating partitioned Hartree potential by multipole expansion.
  | Analytical far-field extrapolation by fixed multipoles:
  | Hartree multipole sum: apparent total charge =  -0.325608E-03
  Summing up the Hartree potential.
  Time summed over all CPUs for potential: real work        0.282 s, elapsed        0.282 s
  | RMS charge density error from multipole expansion :   0.138692E-01

  Integrating Hamiltonian matrix: batch-based integration.
  Time summed over all CPUs for integration: real work        0.492 s, elapsed        0.492 s

  Updating Kohn-Sham eigenvalues and eigenvectors using ELSI and the ELPA eigensolver.
  Finished Cholesky decomposition
  | Time :     0.000 s
  Finished transformation to standard eigenproblem
  | Time :     0.000 s
  Starting LAPACK eigensolver
  Finished solving standard eigenproblem
  | Time :     0.001 s
  Finished back-transformation of eigenvectors
  | Time :     0.000 s

  Obtaining occupation numbers and chemical potential using ELSI.
  | Chemical potential (Fermi level):    -2.56135893eV
  Highest occupied state (VBM) at     -6.48376596 eV
  | Occupation number:      2.00000000

  Lowest unoccupied state (CBM) at    -2.20947078 eV
  | Occupation number:      0.00000000

  Overall HOMO-LUMO gap:      4.27429518 eV.

  Checking to see if s.c.f. parameters should be adjusted.

  Total energy components:
  | Sum of eigenvalues            :        -181.76333600 Ha       -4946.03202377 eV
  | XC energy correction          :         -42.47452411 Ha       -1155.79060711 eV
  | XC potential correction       :          54.61003123 Ha        1486.01455723 eV
  | Free-atom electrostatic energy:        -146.86522195 Ha       -3996.40602417 eV
  | Hartree energy correction     :          -7.00493801 Ha        -190.61406155 eV
  | vdW energy correction         :           0.00000000 Ha           0.00000000 eV
  | Entropy correction            :           0.00000000 Ha           0.00000000 eV
  | ---------------------------
  | Total energy                  :        -323.49798884 Ha       -8802.82815937 eV
  | Total energy, T -> 0          :        -323.49798884 Ha       -8802.82815937 eV  <-- do not rely on this value for anything but (periodic) metals
  | Electronic free energy        :        -323.49798884 Ha       -8802.82815937 eV

  Derived energy quantities:
  | Kinetic energy                :         323.60493108 Ha        8805.73820562 eV
  | Electrostatic energy          :        -604.62839581 Ha      -16452.77575788 eV
  | Energy correction for multipole
  | error in Hartree potential    :           0.02676830 Ha           0.72840242 eV
  | Sum of eigenvalues per atom                           :        -380.46400183 eV
  | Total energy (T->0) per atom                          :        -677.14062764 eV  <-- do not rely on this value for anything but (periodic) metals
  | Electronic free energy per atom                       :        -677.14062764 eV

  Self-consistency convergence accuracy:
  | Change of charge density      :  0.3675E+00
  | Change of sum of eigenvalues  :  0.9831E+02 eV
  | Change of total energy        :  0.2155E+01 eV

  End self-consistency iteration #     2       :  max(cpu_time)    wall_clock(cpu1)
  | Time for this iteration                    :        1.179 s           1.179 s
  | Charge density update                      :        0.387 s           0.387 s
  | Density mixing                             :        0.007 s           0.007 s
  | Hartree multipole update                   :        0.009 s           0.009 s
  | Hartree multipole summation                :        0.282 s           0.282 s
  | Integration                                :        0.492 s           0.492 s
  | Solution of K.-S. eqns.                    :        0.002 s           0.002 s
  | Total energy evaluation                    :        0.000 s           0.000 s

  Partial memory accounting:
  | Current value for overall tracked memory usage on task 0  :           0.166 MB
  | Peak value for overall tracked memory usage on task 0     :           0.695 MB after allocating gradient_basis_wave
  | Largest tracked array allocation on task 0 so far         :           0.397 MB  when allocating gradient_basis_wave
  Note:  These values currently only include a subset of arrays which are explicitly tracked.
  The "true" memory usage will be greater.
------------------------------------------------------------

------------------------------------------------------------
          Begin self-consistency iteration #    3

  Date     :  20200902, Time     :  102858.950
------------------------------------------------------------
  Evaluating new KS density.
  Integration grid: deviation in total charge (<rho> - N_e) =  -1.421085E-14
  Pulay mixing of updated and previous charge densities.

  Evaluating partitioned Hartree potential by multipole expansion.
  | Analytical far-field extrapolation by fixed multipoles:
  | Hartree multipole sum: apparent total charge =  -0.421944E-03
  Summing up the Hartree potential.
  Time summed over all CPUs for potential: real work        0.283 s, elapsed        0.283 s
  | RMS charge density error from multipole expansion :   0.219300E-01

  Integrating Hamiltonian matrix: batch-based integration.
  Time summed over all CPUs for integration: real work        0.492 s, elapsed        0.492 s

  Updating Kohn-Sham eigenvalues and eigenvectors using ELSI and the ELPA eigensolver.
  Finished Cholesky decomposition
  | Time :     0.000 s
  Finished transformation to standard eigenproblem
  | Time :     0.000 s
  Starting LAPACK eigensolver
  Finished solving standard eigenproblem
  | Time :     0.002 s
  Finished back-transformation of eigenvectors
  | Time :     0.000 s

  Obtaining occupation numbers and chemical potential using ELSI.
  | Chemical potential (Fermi level):    -1.88042488eV
  Highest occupied state (VBM) at     -5.80001486 eV
  | Occupation number:      2.00000000

  Lowest unoccupied state (CBM) at    -1.52589838 eV
  | Occupation number:      0.00000000

  Overall HOMO-LUMO gap:      4.27411648 eV.

  Total energy components:
  | Sum of eigenvalues            :        -180.46875387 Ha       -4910.80465175 eV
  | XC energy correction          :         -42.62434578 Ha       -1159.86746222 eV
  | XC potential correction       :          54.80107365 Ha        1491.21308611 eV
  | Free-atom electrostatic energy:        -146.86522195 Ha       -3996.40602417 eV
  | Hartree energy correction     :          -8.32762957 Ha        -226.60633012 eV
  | vdW energy correction         :           0.00000000 Ha           0.00000000 eV
  | Entropy correction            :           0.00000000 Ha           0.00000000 eV
  | ---------------------------
  | Total energy                  :        -323.48487752 Ha       -8802.47138215 eV
  | Total energy, T -> 0          :        -323.48487752 Ha       -8802.47138215 eV  <-- do not rely on this value for anything but (periodic) metals
  | Electronic free energy        :        -323.48487752 Ha       -8802.47138215 eV

  Derived energy quantities:
  | Kinetic energy                :         323.16294912 Ha        8793.71126478 eV
  | Electrostatic energy          :        -604.02348086 Ha      -16436.31518471 eV
  | Energy correction for multipole
  | error in Hartree potential    :           0.03807928 Ha           1.03618983 eV
  | Sum of eigenvalues per atom                           :        -377.75420398 eV
  | Total energy (T->0) per atom                          :        -677.11318324 eV  <-- do not rely on this value for anything but (periodic) metals
  | Electronic free energy per atom                       :        -677.11318324 eV

  Self-consistency convergence accuracy:
  | Change of charge density      :  0.2054E+00
  | Change of sum of eigenvalues  :  0.3523E+02 eV
  | Change of total energy        :  0.3568E+00 eV

  End self-consistency iteration #     3       :  max(cpu_time)    wall_clock(cpu1)
  | Time for this iteration                    :        1.182 s           1.182 s
  | Charge density update                      :        0.387 s           0.386 s
  | Density mixing                             :        0.008 s           0.009 s
  | Hartree multipole update                   :        0.009 s           0.009 s
  | Hartree multipole summation                :        0.283 s           0.283 s
  | Integration                                :        0.492 s           0.493 s
  | Solution of K.-S. eqns.                    :        0.002 s           0.002 s
  | Total energy evaluation                    :        0.000 s           0.000 s

  Partial memory accounting:
  | Current value for overall tracked memory usage on task 0  :           0.166 MB
  | Peak value for overall tracked memory usage on task 0     :           0.695 MB after allocating gradient_basis_wave
  | Largest tracked array allocation on task 0 so far         :           0.397 MB  when allocating gradient_basis_wave
  Note:  These values currently only include a subset of arrays which are explicitly tracked.
  The "true" memory usage will be greater.
------------------------------------------------------------

------------------------------------------------------------
          Begin self-consistency iteration #    4

  Date     :  20200902, Time     :  102900.136
------------------------------------------------------------
  Evaluating new KS density.
  Integration grid: deviation in total charge (<rho> - N_e) =  -2.842171E-14
  Pulay mixing of updated and previous charge densities.

  Evaluating partitioned Hartree potential by multipole expansion.
  | Analytical far-field extrapolation by fixed multipoles:
  | Hartree multipole sum: apparent total charge =  -0.453125E-03
  Summing up the Hartree potential.
  Time summed over all CPUs for potential: real work        0.282 s, elapsed        0.282 s
  | RMS charge density error from multipole expansion :   0.252203E-01

  Integrating Hamiltonian matrix: batch-based integration.
  Time summed over all CPUs for integration: real work        0.492 s, elapsed        0.492 s

  Updating Kohn-Sham eigenvalues and eigenvectors using ELSI and the ELPA eigensolver.
  Finished Cholesky decomposition
  | Time :     0.000 s
  Finished transformation to standard eigenproblem
  | Time :     0.000 s
  Starting LAPACK eigensolver
  Finished solving standard eigenproblem
  | Time :     0.002 s
  Finished back-transformation of eigenvectors
  | Time :     0.000 s

  Obtaining occupation numbers and chemical potential using ELSI.
  | Chemical potential (Fermi level):    -1.77587128eV
  Highest occupied state (VBM) at     -5.62814175 eV
  | Occupation number:      2.00000000

  Lowest unoccupied state (CBM) at    -1.43503365 eV
  | Occupation number:      0.00000000

  Overall HOMO-LUMO gap:      4.19310810 eV.

  Total energy components:
  | Sum of eigenvalues            :        -180.30796930 Ha       -4906.42948115 eV
  | XC energy correction          :         -42.66211389 Ha       -1160.89518463 eV
  | XC potential correction       :          54.84871178 Ha        1492.50938561 eV
  | Free-atom electrostatic energy:        -146.86522195 Ha       -3996.40602417 eV
  | Hartree energy correction     :          -8.49739908 Ha        -231.22599355 eV
  | vdW energy correction         :           0.00000000 Ha           0.00000000 eV
  | Entropy correction            :           0.00000000 Ha           0.00000000 eV
  | ---------------------------
  | Total energy                  :        -323.48399244 Ha       -8802.44729790 eV
  | Total energy, T -> 0          :        -323.48399244 Ha       -8802.44729790 eV  <-- do not rely on this value for anything but (periodic) metals
  | Electronic free energy        :        -323.48399244 Ha       -8802.44729790 eV

  Derived energy quantities:
  | Kinetic energy                :         322.79775100 Ha        8783.77371823 eV
  | Electrostatic energy          :        -603.61962955 Ha      -16425.32583150 eV
  | Energy correction for multipole
  | error in Hartree potential    :           0.04228182 Ha           1.15054689 eV
  | Sum of eigenvalues per atom                           :        -377.41765240 eV
  | Total energy (T->0) per atom                          :        -677.11133061 eV  <-- do not rely on this value for anything but (periodic) metals
  | Electronic free energy per atom                       :        -677.11133061 eV

  Self-consistency convergence accuracy:
  | Change of charge density      :  0.6354E-01
  | Change of sum of eigenvalues  :  0.4375E+01 eV
  | Change of total energy        :  0.2408E-01 eV

  End self-consistency iteration #     4       :  max(cpu_time)    wall_clock(cpu1)
  | Time for this iteration                    :        1.181 s           1.181 s
  | Charge density update                      :        0.385 s           0.385 s
  | Density mixing                             :        0.010 s           0.010 s
  | Hartree multipole update                   :        0.009 s           0.009 s
  | Hartree multipole summation                :        0.282 s           0.283 s
  | Integration                                :        0.492 s           0.492 s
  | Solution of K.-S. eqns.                    :        0.002 s           0.002 s
  | Total energy evaluation                    :        0.000 s           0.000 s

  Partial memory accounting:
  | Current value for overall tracked memory usage on task 0  :           0.166 MB
  | Peak value for overall tracked memory usage on task 0     :           0.696 MB after allocating gradient_basis_wave
  | Largest tracked array allocation on task 0 so far         :           0.397 MB  when allocating gradient_basis_wave
  Note:  These values currently only include a subset of arrays which are explicitly tracked.
  The "true" memory usage will be greater.
------------------------------------------------------------

------------------------------------------------------------
          Begin self-consistency iteration #    5

  Date     :  20200902, Time     :  102901.320
------------------------------------------------------------
  Evaluating new KS density.
  Integration grid: deviation in total charge (<rho> - N_e) =   1.421085E-14
  Pulay mixing of updated and previous charge densities.

  Evaluating partitioned Hartree potential by multipole expansion.
  | Analytical far-field extrapolation by fixed multipoles:
  | Hartree multipole sum: apparent total charge =  -0.446610E-03
  Summing up the Hartree potential.
  Time summed over all CPUs for potential: real work        0.282 s, elapsed        0.282 s
  | RMS charge density error from multipole expansion :   0.250032E-01

  Integrating Hamiltonian matrix: batch-based integration.
  Time summed over all CPUs for integration: real work        0.492 s, elapsed        0.492 s

  Updating Kohn-Sham eigenvalues and eigenvectors using ELSI and the ELPA eigensolver.
  Finished Cholesky decomposition
  | Time :     0.000 s
  Finished transformation to standard eigenproblem
  | Time :     0.000 s
  Starting LAPACK eigensolver
  Finished solving standard eigenproblem
  | Time :     0.002 s
  Finished back-transformation of eigenvectors
  | Time :     0.000 s

  Obtaining occupation numbers and chemical potential using ELSI.
  | Chemical potential (Fermi level):    -1.85528599eV
  Highest occupied state (VBM) at     -5.71052125 eV
  | Occupation number:      2.00000000

  Lowest unoccupied state (CBM) at    -1.53627395 eV
  | Occupation number:      0.00000000

  Overall HOMO-LUMO gap:      4.17424730 eV.

  Total energy components:
  | Sum of eigenvalues            :        -180.53397897 Ha       -4912.57951716 eV
  | XC energy correction          :         -42.63518577 Ha       -1160.16243327 eV
  | XC potential correction       :          54.81376055 Ha        1491.55831411 eV
  | Free-atom electrostatic energy:        -146.86522195 Ha       -3996.40602417 eV
  | Hartree energy correction     :          -8.26306745 Ha        -224.84950546 eV
  | vdW energy correction         :           0.00000000 Ha           0.00000000 eV
  | Entropy correction            :           0.00000000 Ha           0.00000000 eV
  | ---------------------------
  | Total energy                  :        -323.48369360 Ha       -8802.43916594 eV
  | Total energy, T -> 0          :        -323.48369360 Ha       -8802.43916594 eV  <-- do not rely on this value for anything but (periodic) metals
  | Electronic free energy        :        -323.48369360 Ha       -8802.43916594 eV

  Derived energy quantities:
  | Kinetic energy                :         322.66338654 Ha        8780.11747531 eV
  | Electrostatic energy          :        -603.51189437 Ha      -16422.39420799 eV
  | Energy correction for multipole
  | error in Hartree potential    :           0.04165619 Ha           1.13352256 eV
  | Sum of eigenvalues per atom                           :        -377.89073209 eV
  | Total energy (T->0) per atom                          :        -677.11070507 eV  <-- do not rely on this value for anything but (periodic) metals
  | Electronic free energy per atom                       :        -677.11070507 eV

  Self-consistency convergence accuracy:
  | Change of charge density      :  0.2018E-01
  | Change of sum of eigenvalues  : -0.6150E+01 eV
  | Change of total energy        :  0.8132E-02 eV

  End self-consistency iteration #     5       :  max(cpu_time)    wall_clock(cpu1)
  | Time for this iteration                    :        1.183 s           1.183 s
  | Charge density update                      :        0.386 s           0.385 s
  | Density mixing                             :        0.011 s           0.011 s
  | Hartree multipole update                   :        0.009 s           0.009 s
  | Hartree multipole summation                :        0.283 s           0.283 s
  | Integration                                :        0.493 s           0.493 s
  | Solution of K.-S. eqns.                    :        0.002 s           0.002 s
  | Total energy evaluation                    :        0.000 s           0.000 s

  Partial memory accounting:
  | Current value for overall tracked memory usage on task 0  :           0.166 MB
  | Peak value for overall tracked memory usage on task 0     :           0.696 MB after allocating gradient_basis_wave
  | Largest tracked array allocation on task 0 so far         :           0.397 MB  when allocating gradient_basis_wave
  Note:  These values currently only include a subset of arrays which are explicitly tracked.
  The "true" memory usage will be greater.
------------------------------------------------------------

------------------------------------------------------------
          Begin self-consistency iteration #    6

  Date     :  20200902, Time     :  102902.506
------------------------------------------------------------
  Evaluating new KS density.
  Integration grid: deviation in total charge (<rho> - N_e) =   7.105427E-15
  Pulay mixing of updated and previous charge densities.

  Evaluating partitioned Hartree potential by multipole expansion.
  | Analytical far-field extrapolation by fixed multipoles:
  | Hartree multipole sum: apparent total charge =  -0.451060E-03
  Summing up the Hartree potential.
  Time summed over all CPUs for potential: real work        0.288 s, elapsed        0.288 s
  | RMS charge density error from multipole expansion :   0.254754E-01

  Integrating Hamiltonian matrix: batch-based integration.
  Time summed over all CPUs for integration: real work        0.492 s, elapsed        0.492 s

  Updating Kohn-Sham eigenvalues and eigenvectors using ELSI and the ELPA eigensolver.
  Finished Cholesky decomposition
  | Time :     0.000 s
  Finished transformation to standard eigenproblem
  | Time :     0.000 s
  Starting LAPACK eigensolver
  Finished solving standard eigenproblem
  | Time :     0.002 s
  Finished back-transformation of eigenvectors
  | Time :     0.000 s

  Obtaining occupation numbers and chemical potential using ELSI.
  | Chemical potential (Fermi level):    -1.83906647eV
  Highest occupied state (VBM) at     -5.66369662 eV
  | Occupation number:      2.00000000

  Lowest unoccupied state (CBM) at    -1.53441540 eV
  | Occupation number:      0.00000000

  Overall HOMO-LUMO gap:      4.12928122 eV.

  Total energy components:
  | Sum of eigenvalues            :        -180.50115073 Ha       -4911.68621508 eV
  | XC energy correction          :         -42.63809418 Ha       -1160.24157495 eV
  | XC potential correction       :          54.81751187 Ha        1491.66039279 eV
  | Free-atom electrostatic energy:        -146.86522195 Ha       -3996.40602417 eV
  | Hartree energy correction     :          -8.29670400 Ha        -225.76480259 eV
  | vdW energy correction         :           0.00000000 Ha           0.00000000 eV
  | Entropy correction            :           0.00000000 Ha           0.00000000 eV
  | ---------------------------
  | Total energy                  :        -323.48365898 Ha       -8802.43822400 eV
  | Total energy, T -> 0          :        -323.48365898 Ha       -8802.43822400 eV  <-- do not rely on this value for anything but (periodic) metals
  | Electronic free energy        :        -323.48365898 Ha       -8802.43822400 eV

  Derived energy quantities:
  | Kinetic energy                :         322.60070829 Ha        8778.41191338 eV
  | Electrostatic energy          :        -603.44627310 Ha      -16420.60856243 eV
  | Energy correction for multipole
  | error in Hartree potential    :           0.04217138 Ha           1.14754173 eV
  | Sum of eigenvalues per atom                           :        -377.82201654 eV
  | Total energy (T->0) per atom                          :        -677.11063262 eV  <-- do not rely on this value for anything but (periodic) metals
  | Electronic free energy per atom                       :        -677.11063262 eV

  Self-consistency convergence accuracy:
  | Change of charge density      :  0.1034E-01
  | Change of sum of eigenvalues  :  0.8933E+00 eV
  | Change of total energy        :  0.9419E-03 eV

  End self-consistency iteration #     6       :  max(cpu_time)    wall_clock(cpu1)
  | Time for this iteration                    :        1.183 s           1.190 s
  | Charge density update                      :        0.385 s           0.385 s
  | Density mixing                             :        0.012 s           0.013 s
  | Hartree multipole update                   :        0.009 s           0.009 s
  | Hartree multipole summation                :        0.282 s           0.289 s
  | Integration                                :        0.492 s           0.492 s
  | Solution of K.-S. eqns.                    :        0.002 s           0.002 s
  | Total energy evaluation                    :        0.000 s           0.000 s

  Partial memory accounting:
  | Current value for overall tracked memory usage on task 0  :           0.166 MB
  | Peak value for overall tracked memory usage on task 0     :           0.696 MB after allocating gradient_basis_wave
  | Largest tracked array allocation on task 0 so far         :           0.397 MB  when allocating gradient_basis_wave
  Note:  These values currently only include a subset of arrays which are explicitly tracked.
  The "true" memory usage will be greater.
------------------------------------------------------------

------------------------------------------------------------
          Begin self-consistency iteration #    7

  Date     :  20200902, Time     :  102903.699
------------------------------------------------------------
  Evaluating new KS density.
  Integration grid: deviation in total charge (<rho> - N_e) =   0.000000E+00
  Pulay mixing of updated and previous charge densities.

  Evaluating partitioned Hartree potential by multipole expansion.
  | Analytical far-field extrapolation by fixed multipoles:
  | Hartree multipole sum: apparent total charge =  -0.451645E-03
  Summing up the Hartree potential.
  Time summed over all CPUs for potential: real work        0.282 s, elapsed        0.282 s
  | RMS charge density error from multipole expansion :   0.255814E-01

  Integrating Hamiltonian matrix: batch-based integration.
  Time summed over all CPUs for integration: real work        0.493 s, elapsed        0.493 s

  Updating Kohn-Sham eigenvalues and eigenvectors using ELSI and the ELPA eigensolver.
  Finished Cholesky decomposition
  | Time :     0.000 s
  Finished transformation to standard eigenproblem
  | Time :     0.000 s
  Starting LAPACK eigensolver
  Finished solving standard eigenproblem
  | Time :     0.001 s
  Finished back-transformation of eigenvectors
  | Time :     0.000 s

[...]
  |   Hirshfeld dipole moment :      0.06008547
  |   Hirshfeld second moments:      0.01948995      -0.02532442      -0.01573488
  |                                 -0.02532442      -0.02156827       0.00539452
  |                                 -0.01573488       0.00539452      -0.02085198
  ----------------------------------------------------------------------
  | Atom    12: O
  |   Hirshfeld charge        :     -0.15914947
  |   Free atom volume        :     23.61338643
  |   Hirshfeld volume        :     20.83521641
  |   Hirshfeld dipole vector :      0.00464127       0.02467349       0.02980646
  |   Hirshfeld dipole moment :      0.03897111
  |   Hirshfeld second moments:      0.10304254       0.01737580      -0.02781399
  |                                  0.01737580       0.04044793       0.00321590
  |                                 -0.02781399       0.00321590       0.03331794
  ----------------------------------------------------------------------
  | Atom    13: H
  |   Hirshfeld charge        :      0.18742801
  |   Free atom volume        :      9.95071624
  |   Hirshfeld volume        :      6.15460790
  |   Hirshfeld dipole vector :     -0.11591427      -0.00089857       0.05773079
  |   Hirshfeld dipole moment :      0.12949815
  |   Hirshfeld second moments:      0.12390594       0.00497578      -0.00679351
  |                                  0.00497578       0.12163696       0.00392478
  |                                 -0.00679351       0.00392478       0.10159103
  ----------------------------------------------------------------------


  Total energy components:
  | Sum of eigenvalues            :        -180.50336075 Ha       -4911.74635292 eV
  | XC energy correction          :         -42.63442029 Ha       -1160.14160337 eV
  | XC potential correction       :          54.81283945 Ha        1491.53324988 eV
  | Free-atom electrostatic energy:        -146.86522195 Ha       -3996.40602417 eV
  | Hartree energy correction     :          -8.29347147 Ha        -225.67684101 eV
  | vdW energy correction         :          -0.00316197 Ha          -0.08604160 eV
  | Entropy correction            :           0.00000000 Ha           0.00000000 eV
  | ---------------------------
  | Total energy                  :        -323.48679698 Ha       -8802.52361320 eV
  | Total energy, T -> 0          :        -323.48679698 Ha       -8802.52361320 eV  <-- do not rely on this value for anything but (periodic) metals
  | Electronic free energy        :        -323.48679698 Ha       -8802.52361320 eV

  Derived energy quantities:
  | Kinetic energy                :         322.56073240 Ha        8777.32411402 eV
  | Electrostatic energy          :        -603.40994712 Ha      -16419.62008224 eV
  | Energy correction for multipole
  | error in Hartree potential    :           0.04223180 Ha           1.14918580 eV
  | Sum of eigenvalues per atom                           :        -377.82664253 eV
  | Total energy (T->0) per atom                          :        -677.11720102 eV  <-- do not rely on this value for anything but (periodic) metals
  | Electronic free energy per atom                       :        -677.11720102 eV

  atomic forces [eV/Ang]:
  -----------------------
  atom #    1
   Hellmann-Feynman              :  0.151941E+01 -0.429110E-01  0.570759E+00
   Ionic forces                  :  0.000000E+00  0.000000E+00  0.000000E+00
   Multipole                     :  0.158340E+00  0.308181E+00 -0.287936E+00
   Pulay + GGA                   : -0.155866E+01 -0.164990E+00 -0.102293E+01
   Van der Waals                 :  0.595391E-02  0.554992E-02 -0.278497E-02
   ----------------------------------------------------------------
   Total forces(   1)            :  0.125042E+00  0.105830E+00 -0.742895E+00
  atom #    2
   Hellmann-Feynman              :  0.487344E+00  0.450779E-01  0.410622E+00
   Ionic forces                  :  0.000000E+00  0.000000E+00  0.000000E+00
   Multipole                     :  0.146155E+00  0.254119E-01 -0.450390E-01
   Pulay + GGA                   : -0.119078E+00  0.726952E-02  0.308193E-02
   Van der Waals                 :  0.862936E-02 -0.417760E-02 -0.106262E-02
   ----------------------------------------------------------------
   Total forces(   2)            :  0.523050E+00  0.735817E-01  0.367602E+00
  atom #    3
   Hellmann-Feynman              : -0.125747E+02  0.100497E+00  0.972175E+00
   Ionic forces                  :  0.000000E+00  0.000000E+00  0.000000E+00
   Multipole                     : -0.110767E+00  0.124501E+00 -0.840455E+00
   Pulay + GGA                   :  0.122953E+02 -0.234013E+00  0.765089E+00
   Van der Waals                 :  0.172289E-02 -0.806035E-02 -0.558257E-02
   ----------------------------------------------------------------
   Total forces(   3)            : -0.388407E+00 -0.170757E-01  0.891227E+00
  atom #    4
   Hellmann-Feynman              :  0.243594E+00 -0.578611E-02 -0.839332E-01
   Ionic forces                  :  0.000000E+00  0.000000E+00  0.000000E+00
   Multipole                     :  0.347450E-01  0.261696E-01 -0.100246E+00
   Pulay + GGA                   : -0.147345E+00 -0.144590E+00  0.829378E-01
   Van der Waals                 : -0.362832E-02 -0.636047E-02 -0.543559E-02
   ----------------------------------------------------------------
   Total forces(   4)            :  0.127365E+00 -0.130567E+00 -0.106677E+00
  atom #    5
   Hellmann-Feynman              :  0.193511E+00 -0.541128E-01 -0.271940E+00
   Ionic forces                  :  0.000000E+00  0.000000E+00  0.000000E+00
   Multipole                     :  0.408248E-01 -0.453565E-01 -0.106646E+00
   Pulay + GGA                   : -0.172875E+00  0.139462E+00  0.951610E-01
   Van der Waals                 : -0.188967E-02  0.466628E-02 -0.355666E-02
   ----------------------------------------------------------------
   Total forces(   5)            :  0.595715E-01  0.446586E-01 -0.286982E+00
  atom #    6
   Hellmann-Feynman              : -0.263872E+00 -0.707091E+00  0.482629E+00
   Ionic forces                  :  0.000000E+00  0.000000E+00  0.000000E+00
   Multipole                     : -0.106531E+00  0.689552E+00  0.241140E+00
   Pulay + GGA                   :  0.434258E+00 -0.479559E+00 -0.643344E+00
   Van der Waals                 : -0.459579E-02  0.290031E-02 -0.143022E-03
   ----------------------------------------------------------------
   Total forces(   6)            :  0.592594E-01 -0.494197E+00  0.802820E-01
  atom #    7
   Hellmann-Feynman              : -0.212139E+00 -0.268799E-01 -0.584525E-01
   Ionic forces                  :  0.000000E+00  0.000000E+00  0.000000E+00
   Multipole                     : -0.122071E+00  0.470991E-01  0.318809E-01
   Pulay + GGA                   :  0.114300E+00 -0.900232E-03 -0.343539E-01
   Van der Waals                 : -0.720973E-03  0.761413E-03  0.212631E-02
   ----------------------------------------------------------------
   Total forces(   7)            : -0.220631E+00  0.200804E-01 -0.587992E-01
  atom #    8
   Hellmann-Feynman              :  0.113963E+00 -0.359939E-01  0.112342E+00
   Ionic forces                  :  0.000000E+00  0.000000E+00  0.000000E+00
   Multipole                     :  0.119837E-01  0.651496E-01  0.127613E+00
   Pulay + GGA                   : -0.390399E-01 -0.413172E-01 -0.983918E-01
   Van der Waals                 : -0.268449E-02  0.113332E-01  0.114697E-02
   ----------------------------------------------------------------
   Total forces(   8)            :  0.842222E-01 -0.828343E-03  0.142709E+00
  atom #    9
   Hellmann-Feynman              :  0.109831E+00  0.640956E-01 -0.202432E+00
   Ionic forces                  :  0.000000E+00  0.000000E+00  0.000000E+00
   Multipole                     :  0.207730E-01  0.129754E+00 -0.351954E-02
   Pulay + GGA                   : -0.480655E-01 -0.734389E-01  0.731682E-01
   Van der Waals                 : -0.202305E-02  0.712033E-02  0.926352E-02
   ----------------------------------------------------------------
   Total forces(   9)            :  0.805158E-01  0.127531E+00 -0.123519E+00
  atom #   10
   Hellmann-Feynman              :  0.309919E+01  0.541054E+01  0.123196E+01
   Ionic forces                  :  0.000000E+00  0.000000E+00  0.000000E+00
   Multipole                     :  0.916691E-01 -0.205285E+00  0.317982E+00
   Pulay + GGA                   : -0.110783E+01 -0.316828E+01 -0.431928E+00
   Van der Waals                 :  0.256807E-02 -0.105770E-01  0.517027E-03
   ----------------------------------------------------------------
   Total forces(  10)            :  0.208560E+01  0.202640E+01  0.111853E+01
  atom #   11
   Hellmann-Feynman              :  0.418402E+01 -0.220771E+01  0.137996E+02
   Ionic forces                  :  0.000000E+00  0.000000E+00  0.000000E+00
   Multipole                     : -0.114040E-01 -0.671968E+00  0.842887E+00
   Pulay + GGA                   : -0.352169E+01  0.375175E+01 -0.133283E+02
   Van der Waals                 : -0.209831E-02 -0.119477E-01  0.215215E-02
   ----------------------------------------------------------------
   Total forces(  11)            :  0.648823E+00  0.860121E+00  0.131634E+01
  atom #   12
   Hellmann-Feynman              :  0.710073E+00 -0.670947E+01 -0.149734E+02
   Ionic forces                  :  0.000000E+00  0.000000E+00  0.000000E+00
   Multipole                     : -0.623146E+00 -0.128064E+01 -0.582754E+00
   Pulay + GGA                   : -0.272821E+01  0.655186E+01  0.130998E+02
   Van der Waals                 : -0.943618E-03  0.477136E-02  0.685479E-02
   ----------------------------------------------------------------
   Total forces(  12)            : -0.264223E+01 -0.143348E+01 -0.244943E+01
  atom #   13
   Hellmann-Feynman              : -0.805035E+00 -0.117474E+01  0.735232E-01
   Ionic forces                  :  0.000000E+00  0.000000E+00  0.000000E+00
   Multipole                     : -0.724994E-01  0.479549E-02  0.150792E-01
   Pulay + GGA                   :  0.332150E+00 -0.173638E-01 -0.234846E+00
   Van der Waals                 : -0.290010E-03  0.402033E-02 -0.349533E-02
   ----------------------------------------------------------------
   Total forces(  13)            : -0.545674E+00 -0.118329E+01 -0.149739E+00

  Timings for VdW correction (Tkatchenko-Scheffler 2009 or later):
  | CPU time:        0.089 s, Wall clock time:        0.089 s.
  Removing unitary transformations (pure translations, rotations) from forces on atoms.
  Atomic forces before filtering:
  | Net force on center of mass :  -0.348926E-02 -0.124026E-02 -0.134716E-02 eV/A
  | Net torque on center of mass:  -0.737377E-02  0.484555E-02 -0.294715E-02 eV
  Atomic forces after filtering:
  | Net force on center of mass :   0.535218E-15  0.535218E-15 -0.111504E-15 eV/A
  | Net torque on center of mass:   0.188817E-15 -0.708063E-15  0.000000E+00 eV

  Energy and forces in a compact form:
  | Total energy uncorrected      :         -0.880252361319501E+04 eV
  | Total energy corrected        :         -0.880252361319501E+04 eV  <-- do not rely on this value for anything but (periodic) metals
  | Electronic free energy        :         -0.880252361319501E+04 eV
  Total atomic forces (unitary forces cleaned) [eV/Ang]:
  |   1          0.125324253701548E+00          0.105982536596286E+00         -0.742702764291915E+00
  |   2          0.523332299828310E+00          0.738328804431002E-01          0.367988864713829E+00
  |   3         -0.387873880005917E+00         -0.167419031161154E-01          0.891334363313357E+00
  |   4          0.127907756716934E+00         -0.130125618268497E+00         -0.106372947664640E+00
  |   5          0.602620164944310E-01          0.450949738777418E-01         -0.286949429429217E+00
  |   6          0.592991282291547E-01         -0.494204530562395E+00          0.805867846818139E-01
  |   7         -0.220596485610114E+00          0.199727878403432E-01         -0.586839889393176E-01
  |   8          0.840778150364374E-01         -0.966298264123043E-03          0.143080413538056E+00
  |   9          0.805644858568329E-01          0.127636622376737E+00         -0.123007956218685E+00
  |  10          0.208586866749713E+01          0.202639946187651E+01          0.111844929804346E+01
  |  11          0.648911911099970E+00          0.859966776558925E+00          0.131626646430164E+01
  |  12         -0.264176645605513E+01         -0.143344035465245E+01         -0.244976736175034E+01
  |  13         -0.545311512789585E+00         -0.118340733470606E+01         -0.150221740298044E+00

  ------------------------------------ 
  Start decomposition of the XC Energy 
  ------------------------------------ 
  X and C from original XC functional choice 
  Hartree-Fock Energy :          0.000000000 Ha              0.000000000 eV
  X Energy            :        -41.034917593 Ha          -1116.616920539 eV
  C Energy            :         -1.599502695 Ha            -43.524682831 eV
  Total XC Energy     :        -42.634420287 Ha          -1160.141603370 eV
  ------------------------------------ 
  LDA X and C from self-consistent density 
  X Energy LDA        :        -37.252332560 Ha          -1013.687544811 eV
  C Energy LDA        :         -3.138231022 Ha            -85.395610995 eV
  ------------------------------------ 
  End decomposition of the XC Energy 
  ------------------------------------ 

------------------------------------------------------------

------------------------------------------------------------------------------
  Final output of selected total energy values:

  The following output summarizes some interesting total energy values
  at the end of a run (AFTER all relaxation, molecular dynamics, etc.).

  | Total energy of the DFT / Hartree-Fock s.c.f. calculation      :          -8802.523613195 eV
  | Final zero-broadening corrected energy (caution - metals only) :          -8802.523613195 eV
  | For reference only, the value of 1 Hartree used in FHI-aims is :             27.211384500 eV

  Before relying on these values, please be sure to understand exactly which
  total energy value is referred to by a given number. Different objects may
  all carry the same name 'total energy'. Definitions:

  Total energy of the DFT / Hartree-Fock s.c.f. calculation:
  | Note that this energy does not include ANY quantities calculated after the
  | s.c.f. cycle, in particular not ANY RPA, MP2, etc. many-body perturbation terms.

  Final zero-broadening corrected energy:
  | For metallic systems only, a broadening of the occupation numbers at the Fermi
  | level can be extrapolated back to zero broadening by an electron-gas inspired
  | formula. For all systems that are not real metals, this value can be
  | meaningless and should be avoided.

------------------------------------------------------------------------------
  Methods described in the following list of references were used in this FHI-aims run.
  If you publish the results, please make sure to cite these reference if they apply.
  FHI-aims is an academic code, and for our developers (often, Ph.D. students
  and postdocs), scientific credit in the community is essential.
  Thank you for helping us!

  For any use of FHI-aims, please cite:

    Volker Blum, Ralf Gehrke, Felix Hanke, Paula Havu, Ville Havu,
    Xinguo Ren, Karsten Reuter, and Matthias Scheffler
    'Ab initio molecular simulations with numeric atom-centered orbitals'
    Computer Physics Communications 180, 2175-2196 (2009)
    http://dx.doi.org/10.1016/j.cpc.2009.06.022


  The scalable eigensolver library ELPA was used in your run.
  ELPA is essential especially for large systems on hundreds or thousands of CPUs.
  For ELPA, please cite:

    Andreas Marek, Volker Blum, Rainer Johanni, Ville Havu, Bruno Lang,
    Thomas Auckenthaler, Alexander Heinecke, Hans-Joachim Bungartz, and Hermann Lederer,
    'The ELPA Library - Scalable Parallel Eigenvalue Solutions
    for Electronic Structure Theory and Computational Science'
    The Journal of Physics: Condensed Matter 26, 213201 (2014).
    http://dx.doi.org/10.1088/0953-8984/26/21/213201


  The ELSI infrastructure was used in your run to solve the Kohn-Sham electronic structure.
  Please check out http://elsi-interchange.org to learn more.
  If scalability is important for your project, please acknowledge ELSI by citing:

    V. W-z. Yu, F. Corsetti, A. Garcia, W. P. Huhn, M. Jacquelin, W. Jia,
    B. Lange, L. Lin, J. Lu, W. Mi, A. Seifitokaldani, A. Vazquez-Mayagoitia,
    C. Yang, H. Yang, and V. Blum
    'ELSI: A unified software interface for Kohn-Sham electronic structure solvers'
    Computer Physics Communications 222, 267-285 (2018).
    http://dx.doi.org/10.1016/j.cpc.2017.09.007


  For the real-space grid partitioning and parallelization used in this calculation, please cite:

    Ville Havu, Volker Blum, Paula Havu, and Matthias Scheffler,
    'Efficient O(N) integration for all-electron electronic structure calculation'
    'using numerically tabulated basis functions'
    Journal of Computational Physics 228, 8367-8379 (2009).
    http://dx.doi.org/10.1016/j.jcp.2009.08.008

  Of course, there are many other important community references, e.g., those cited in the
  above references. Our list is limited to references that describe implementations in the
  FHI-aims code. The reason is purely practical (length of this list) - please credit others as well.

------------------------------------------------------------
          Leaving FHI-aims.
          Date     :  20200902, Time     :  102917.961

          Computational steps:
          | Number of self-consistency cycles          :           16
          | Number of SCF (re)initializations          :            1

          Detailed time accounting                     :  max(cpu_time)    wall_clock(cpu1)
          | Total time                                 :       22.627 s          22.704 s
          | Preparation time                           :        0.148 s           0.149 s
          | Boundary condition initalization           :        0.000 s           0.000 s
          | Grid partitioning                          :        0.112 s           0.112 s
          | Preloading free-atom quantities on grid    :        0.002 s           0.003 s
          | Free-atom superposition energy             :        0.084 s           0.084 s
          | Total time for integrations                :        8.588 s           8.598 s
          | Total time for solution of K.-S. equations :        0.036 s           0.039 s
          | Total time for density & force components  :        7.122 s           7.123 s
          | Total time for mixing                      :        0.217 s           0.218 s
          | Total time for Hartree multipole update    :        0.142 s           0.147 s
          | Total time for Hartree multipole sum       :        5.775 s           5.781 s
          | Total time for total energy evaluation     :        0.003 s           0.002 s
          | Total time for vdW correction              :        0.089 s           0.089 s

          Partial memory accounting:
          | Residual value for overall tracked memory usage across tasks :           0.000 MB (should be 0.000 MB)
          | Peak values for overall tracked memory usage (after allocating hessian_basis_wave):
          |   Minimum:        1.622 MB (on task 1)
          |   Maximum:        1.622 MB (on task 1)
          |   Average:        1.622 MB
          | Largest tracked array allocation (hessian_basis_wave):
          |   Minimum:        0.794 MB (on task 1)
          |   Maximum:        0.794 MB (on task 1)
          |   Average:        0.794 MB
          Note:  These values currently only include a subset of arrays which are explicitly tracked.
          The "true" memory usage will be greater.

          Have a nice day.
------------------------------------------------------------
