  MPI-parallelism will be employed.
------------------------------------------------------------
          Invoking FHI-aims ...
          Version 171221_1
          Compiled on 2019/09/09 at 14:39:39 on host puhti-login2.bullx.

          When using FHI-aims, please cite the following reference:

          Volker Blum, Ralf Gehrke, Felix Hanke, Paula Havu,
          Ville Havu, Xinguo Ren, Karsten Reuter, and Matthias Scheffler,
          'Ab Initio Molecular Simulations with Numeric Atom-Centered Orbitals',
          Computer Physics Communications 180, 2175-2196 (2009)

          For any questions about FHI-aims, please visit the aimsclub website
          with its forums and wiki. Contributions to both the forums and the
          wiki are warmly encouraged - they are for you, and everyone is welcome there.

------------------------------------------------------------



  Date     :  20200710, Time     :  144702.779
  Time zero on CPU 1             :   0.122190000000000E-01  s.
  Internal wall clock time zero  :           363624422.779  s.

  FHI-aims created a unique identifier for this run for later identification
  aims_uuid : 6426047D-8DD8-49BB-A8C4-09DF015FB751

  Using        1 parallel tasks.
  Task        0 on host r18c46.bullx reporting.

  Performing system and environment tests:
  | Environment variable OMP_NUM_THREADS correctly set to 1.
  | Stacksize not measured: no C compiler
  | Checking for scalapack...
  | Testing pdtran()...
  | All pdtran() tests passed.

  Obtaining array dimensions for all initial allocations:
  
  -----------------------------------------------------------------------
  Parsing control.in (first pass over file, find array dimensions only).
  The contents of control.in will be repeated verbatim below
  unless switched off by setting 'verbatim_writeout .false.' .
  in the first line of control.in .
  -----------------------------------------------------------------------
  
  #########################################################################################
  #
  #  Volker Blum, FHI 2009 : Test run input file control.in for simple H2O
  #
  #########################################################################################
  #
  #  Physical model
  #
    xc                 pbe
    vdw_correction_hirshfeld
    spin               none
    relativistic       none
    charge             0.
  #
  #  SCF convergence
  #
    occupation_type    gaussian 0.01
    mixer              pulay
      n_max_pulay        10
      charge_mix_param   0.2
    sc_accuracy_rho    1E-5
    sc_accuracy_eev    1E-3
    sc_accuracy_etot   1E-6
    sc_accuracy_forces 1E-4
    sc_iter_limit      100
  #
  #  Relaxation
  #
  #  relax_geometry   bfgs 1.e-3
  #
  ################################################################################
  #
  #  FHI-aims code project
  #  VB, Fritz-Haber Institut, 2009
  #
  #  Suggested "light" defaults for H atom (to be pasted into control.in file)
  #  Be sure to double-check any results obtained with these settings for post-processing,
  #  e.g., with the "tight" defaults and larger basis sets.
  #
  ################################################################################
    species        H
  #     global species definitions
      nucleus             1
      mass                1.00794
  #
      l_hartree           4
  #
      cut_pot             3.5  1.5  1.0
      basis_dep_cutoff    1e-4
  #
      radial_base         24 5.0
      radial_multiplier   1
      angular_grids       specified
        division   0.2421   50
        division   0.3822  110
        division   0.4799  194
        division   0.5341  302
  #      division   0.5626  434
  #      division   0.5922  590
  #      division   0.6542  770
  #      division   0.6868 1202
  #      outer_grid  770
        outer_grid  302
  ################################################################################
  #
  #  Definition of "minimal" basis
  #
  ################################################################################
  #     valence basis states
      valence      1  s   1.
  #     ion occupancy
      ion_occ      1  s   0.5
  ################################################################################
  #
  #  Suggested additional basis functions. For production calculations,
  #  uncomment them one after another (the most important basis functions are
  #  listed first).
  #
  #  Basis constructed for dimers: 0.5 A, 0.7 A, 1.0 A, 1.5 A, 2.5 A
  #
  ################################################################################
  #  "First tier" - improvements: -1014.90 meV to -62.69 meV
       hydro 2 s 2.1
       hydro 2 p 3.5
  #  "Second tier" - improvements: -12.89 meV to -1.83 meV
  #     hydro 1 s 0.85
  #     hydro 2 p 3.7
  #     hydro 2 s 1.2
  #     hydro 3 d 7
  #  "Third tier" - improvements: -0.25 meV to -0.12 meV
  #     hydro 4 f 11.2
  #     hydro 3 p 4.8
  #     hydro 4 d 9
  #     hydro 3 s 3.2
  ################################################################################
  #
  #  FHI-aims code project
  #  VB, Fritz-Haber Institut, 2009
  #
  #  Suggested "light" defaults for C atom (to be pasted into control.in file)
  #  Be sure to double-check any results obtained with these settings for post-processing,
  #  e.g., with the "tight" defaults and larger basis sets.
  #
  ################################################################################
    species        C
  #     global species definitions
      nucleus             6
      mass                12.0107
  #
      l_hartree           4
  #
      cut_pot             3.5  1.5  1.0
      basis_dep_cutoff    1e-4
  #
      radial_base         34 5.0
      radial_multiplier   1
      angular_grids specified
        division   0.3326   50
        division   0.5710  110
        division   0.7727  194
        division   0.8772  302
  #      division   0.9334  434
  #      division   0.9625  590
  #      division   0.9924  770
  #      division   1.0230  974
  #      division   1.4589 1202
  #     outer_grid  974
       outer_grid 302
  ################################################################################
  #
  #  Definition of "minimal" basis
  #
  ################################################################################
  #     valence basis states
      valence      2  s   2.
      valence      2  p   2.
  #     ion occupancy
      ion_occ      2  s   1.
      ion_occ      2  p   1.
  ################################################################################
  #
  #  Suggested additional basis functions. For production calculations,
  #  uncomment them one after another (the most important basis functions are
  #  listed first).
  #
  #  Constructed for dimers: 1.0 A, 1.25 A, 1.5 A, 2.0 A, 3.0 A
  #
  ################################################################################
  #  "First tier" - improvements: -1214.57 meV to -155.61 meV
       hydro 2 p 1.7
       hydro 3 d 6
       hydro 2 s 4.9
  #  "Second tier" - improvements: -67.75 meV to -5.23 meV
  #     hydro 4 f 9.8
  #     hydro 3 p 5.2
  #     hydro 3 s 4.3
  #     hydro 5 g 14.4
  #     hydro 3 d 6.2
  #  "Third tier" - improvements: -2.43 meV to -0.60 meV
  #     hydro 2 p 5.6
  #     hydro 2 s 1.4
  #     hydro 3 d 4.9
  #     hydro 4 f 11.2
  #  "Fourth tier" - improvements: -0.39 meV to -0.18 meV
  #     hydro 2 p 2.1
  #     hydro 5 g 16.4
  #     hydro 4 d 13.2
  #     hydro 3 s 13.6
  #     hydro 4 f 17.6
  #  Further basis functions - improvements: -0.08 meV and below
  #     hydro 3 s 2
  #     hydro 3 p 6
  #     hydro 4 d 20
  ################################################################################
  #
  #  FHI-aims code project
  #  VB, Fritz-Haber Institut, 2009
  #
  #  Suggested "light" defaults for N atom (to be pasted into control.in file)
  #  Be sure to double-check any results obtained with these settings for post-processing,
  #  e.g., with the "tight" defaults and larger basis sets.
  #
  ################################################################################
    species        N
  #     global species definitions
      nucleus             7
      mass                14.0067
  #
      l_hartree           4
  #
      cut_pot             3.5  1.5  1.0
      basis_dep_cutoff    1e-4
  #
      radial_base         35 5.0
      radial_multiplier   1
      angular_grids       specified
        division   0.2599   50
        division   0.4601  110
        division   0.5885  194
        division   0.6503  302
  #      division   0.6939  434
  #      division   0.7396  590
  #      division   0.7632  770
  #      division   0.8122  974
  #      division   1.1604 1202
  #      outer_grid  974
        outer_grid  302
  ################################################################################
  #
  #  Definition of "minimal" basis
  #
  ################################################################################
  #     valence basis states
      valence      2  s   2.
      valence      2  p   3.
  #     ion occupancy
      ion_occ      2  s   1.
      ion_occ      2  p   2.
  ################################################################################
  #
  #  Suggested additional basis functions. For production calculations,
  #  uncomment them one after another (the most important basis functions are
  #  listed first).
  #
  #  Constructed for dimers: 1.0 A, 1.1 A, 1.5 A, 2.0 A, 3.0 A
  #
  ################################################################################
  #  "First tier" - improvements: -1193.42 meV to -220.60 meV
       hydro 2 p 1.8
       hydro 3 d 6.8
       hydro 3 s 5.8
  #  "Second tier" - improvements: -80.21 meV to -6.86 meV
  #     hydro 4 f 10.8
  #     hydro 3 p 5.8
  #     hydro 1 s 0.8
  #     hydro 5 g 16
  #     hydro 3 d 4.9
  #  "Third tier" - improvements: -4.29 meV to -0.53 meV
  #     hydro 3 s 16
  #     ionic 2 p auto
  #     hydro 3 d 6.6
  #     hydro 4 f 11.6
  #  "Fourth tier" - improvements: -0.75 meV to -0.25 meV
  #     hydro 2 p 4.5
  #     hydro 2 s 2.4
  #     hydro 5 g 14.4
  #     hydro 4 d 14.4
  #     hydro 4 f 16.8
  # Further basis functions - -0.21 meV and below
  #     hydro 3 p 14.8
  #     hydro 3 s 4.4
  #     hydro 3 d 19.6
  #     hydro 5 g 12.8
  ################################################################################
  #
  #  FHI-aims code project
  #  VB, Fritz-Haber Institut, 2009
  #
  #  Suggested "light" defaults for O atom (to be pasted into control.in file)
  #  Be sure to double-check any results obtained with these settings for post-processing,
  #  e.g., with the "tight" defaults and larger basis sets.
  #
  ################################################################################
    species        O
  #     global species definitions
      nucleus             8
      mass                15.9994
  #
      l_hartree           4
  #
      cut_pot             3.5  1.5  1.0
      basis_dep_cutoff    1e-4
  #
      radial_base         36 5.0
      radial_multiplier   1
       angular_grids specified
        division   0.2659   50
        division   0.4451  110
        division   0.6052  194
        division   0.7543  302
  #      division   0.8014  434
  #      division   0.8507  590
  #      division   0.8762  770
  #      division   0.9023  974
  #      division   1.2339 1202
  #      outer_grid 974
        outer_grid 302
  ################################################################################
  #
  #  Definition of "minimal" basis
  #
  ################################################################################
  #     valence basis states
      valence      2  s   2.
      valence      2  p   4.
  #     ion occupancy
      ion_occ      2  s   1.
      ion_occ      2  p   3.
  ################################################################################
  #
  #  Suggested additional basis functions. For production calculations,
  #  uncomment them one after another (the most important basis functions are
  #  listed first).
  #
  #  Constructed for dimers: 1.0 A, 1.208 A, 1.5 A, 2.0 A, 3.0 A
  #
  ################################################################################
  #  "First tier" - improvements: -699.05 meV to -159.38 meV
       hydro 2 p 1.8
       hydro 3 d 7.6
       hydro 3 s 6.4
  #  "Second tier" - improvements: -49.91 meV to -5.39 meV
  #     hydro 4 f 11.6
  #     hydro 3 p 6.2
  #     hydro 3 d 5.6
  #     hydro 5 g 17.6
  #     hydro 1 s 0.75
  #  "Third tier" - improvements: -2.83 meV to -0.50 meV
  #     ionic 2 p auto
  #     hydro 4 f 10.8
  #     hydro 4 d 4.7
  #     hydro 2 s 6.8
  #  "Fourth tier" - improvements: -0.40 meV to -0.12 meV
  #     hydro 3 p 5
  #     hydro 3 s 3.3
  #     hydro 5 g 15.6
  #     hydro 4 f 17.6
  #     hydro 4 d 14
  # Further basis functions - -0.08 meV and below
  #     hydro 3 s 2.1
  #     hydro 4 d 11.6
  #     hydro 3 p 16
  #     hydro 2 s 17.2
  
  -----------------------------------------------------------------------
  Completed first pass over input file control.in .
  -----------------------------------------------------------------------
  
  
  -----------------------------------------------------------------------
  Parsing geometry.in (first pass over file, find array dimensions only).
  The contents of geometry.in will be repeated verbatim below
  unless switched off by setting 'verbatim_writeout .false.' .
  in the first line of geometry.in .
  -----------------------------------------------------------------------
  
  atom  0.00000 0.00000 0.00000 C
  atom  1.09300 0.00000 0.00000 H
  atom  -0.47961 0.00000 -1.41207 N
  atom  -1.45085 -0.31348 -1.42762 H
  atom  -0.40929 0.94602 -1.78115 H
  atom  -0.49584 1.26211 0.72868 C
  atom  -1.58789 1.28919 0.74431 H
  atom  -0.13407 1.27425 1.75947 H
  atom  -0.13407 2.16087 0.22380 H
  atom  -0.39425 -1.28861 0.74398 C
  atom  -0.10189 -1.56493 1.88303 O
  atom  -1.10210 -2.13717 0.06896 O
  atom  -1.00940 -2.90225 0.66144 H
  
  -----------------------------------------------------------------------
  Completed first pass over input file geometry.in .
  -----------------------------------------------------------------------
  

  Basic array size parameters:
  | Number of species                 :        4
  | Number of atoms                   :       13
  | Max. basis fn. angular momentum   :        2
  | Max. atomic/ionic basis occupied n:        2
  | Max. number of basis fn. types    :        2
  | Max. radial fns per species/type  :        3
  | Max. logarithmic grid size        :     1301
  | Max. radial integration grid size :       36
  | Max. angular integration grid size:      302
  | Max. angular grid division number :        8
  | Radial grid for Hartree potential :     1301
  | Number of spin channels           :        1

------------------------------------------------------------
          Reading file control.in.
------------------------------------------------------------
  XC: Using PBE gradient-corrected functionals.
  Spin treatment: No spin polarisation.
  Non-relativistic treatment of kinetic energy.
  Charge =   0.000000E+00: Neutral system requested explicitly.
  Occupation type: Gaussian broadening, width =   0.100000E-01 eV.
  Using pulay charge density mixing.
  Pulay mixing - number of memorized iterations:   10
  Charge density mixing - mixing parameter:     0.2000
  Convergence accuracy of self-consistent charge density:  0.1000E-04
  Convergence accuracy of sum of eigenvalues:  0.1000E-02
  Convergence accuracy of total energy:  0.1000E-05
  Convergence accuracy of forces:  0.1000E-03
  Maximum number of s.-c. iterations  :   100
 
  Reading configuration options for species H                   .
  | Found nuclear charge :   1.0000
  | Found atomic mass :    1.00794000000000      amu
  | Found l_max for Hartree potential  :   4
  | Found cutoff potl. onset [A], width [A], scale factor :    3.50000    1.50000    1.00000
  | Threshold for basis-dependent cutoff potential is   0.100000E-03
  | Found data for basic radial integration grid :    24 points, outermost radius =    5.000 A
  | Found multiplier for basic radial grid :   1
  | Found angular grid specification: user-specified.
  | Specified grid contains     5 separate shells.
  | Check grid settings after all constraints further below.
  | Found free-atom valence shell :  1 s   1.000
  | No ionic wave fns used. Skipping ion_occ.
  | Found hydrogenic basis function :  2 s   2.100
  | Found hydrogenic basis function :  2 p   3.500
  Species H                   : Missing cutoff potential type.
  Defaulting to exp(1/x)/(1-x)^2 type cutoff potential.
  Species H : No 'logarithmic' tag. Using default grid for free atom:
  | Default logarithmic grid data [bohr] : 0.1000E-03 0.1000E+03 0.1012E+01
  Species H : On-site basis accuracy parameter (for Gram-Schmidt orthonormalisation) not specified.
  Using default value basis_acc =  0.1000000E-03.
  Species H                   : Using default innermost maximum threshold i_radial=  2 for radial functions.
  Species H                   : Default cutoff onset for free atom density etc. : 0.35000000E+01 AA.
  Species H                   : Basic radial grid will be enhanced according to radial_multiplier =   1, to contain    24 grid points.
 
  Reading configuration options for species C                   .
  | Found nuclear charge :   6.0000
  | Found atomic mass :    12.0107000000000      amu
  | Found l_max for Hartree potential  :   4
  | Found cutoff potl. onset [A], width [A], scale factor :    3.50000    1.50000    1.00000
  | Threshold for basis-dependent cutoff potential is   0.100000E-03
  | Found data for basic radial integration grid :    34 points, outermost radius =    5.000 A
  | Found multiplier for basic radial grid :   1
  | Found angular grid specification: user-specified.
  | Specified grid contains     5 separate shells.
  | Check grid settings after all constraints further below.
  | Found free-atom valence shell :  2 s   2.000
  | Found free-atom valence shell :  2 p   2.000
  | No ionic wave fns used. Skipping ion_occ.
  | No ionic wave fns used. Skipping ion_occ.
  | Found hydrogenic basis function :  2 p   1.700
  | Found hydrogenic basis function :  3 d   6.000
  | Found hydrogenic basis function :  2 s   4.900
  Species C                   : Missing cutoff potential type.
  Defaulting to exp(1/x)/(1-x)^2 type cutoff potential.
  Species C : No 'logarithmic' tag. Using default grid for free atom:
  | Default logarithmic grid data [bohr] : 0.1000E-03 0.1000E+03 0.1012E+01
  Species C : On-site basis accuracy parameter (for Gram-Schmidt orthonormalisation) not specified.
  Using default value basis_acc =  0.1000000E-03.
  Species C                   : Using default innermost maximum threshold i_radial=  2 for radial functions.
  Species C                   : Default cutoff onset for free atom density etc. : 0.35000000E+01 AA.
  Species C                   : Basic radial grid will be enhanced according to radial_multiplier =   1, to contain    34 grid points.
 
  Reading configuration options for species N                   .
  | Found nuclear charge :   7.0000
  | Found atomic mass :    14.0067000000000      amu
  | Found l_max for Hartree potential  :   4
  | Found cutoff potl. onset [A], width [A], scale factor :    3.50000    1.50000    1.00000
  | Threshold for basis-dependent cutoff potential is   0.100000E-03
  | Found data for basic radial integration grid :    35 points, outermost radius =    5.000 A
  | Found multiplier for basic radial grid :   1
  | Found angular grid specification: user-specified.
  | Specified grid contains     5 separate shells.
  | Check grid settings after all constraints further below.
  | Found free-atom valence shell :  2 s   2.000
  | Found free-atom valence shell :  2 p   3.000
  | No ionic wave fns used. Skipping ion_occ.
  | No ionic wave fns used. Skipping ion_occ.
  | Found hydrogenic basis function :  2 p   1.800
  | Found hydrogenic basis function :  3 d   6.800
  | Found hydrogenic basis function :  3 s   5.800
  Species N                   : Missing cutoff potential type.
  Defaulting to exp(1/x)/(1-x)^2 type cutoff potential.
  Species N : No 'logarithmic' tag. Using default grid for free atom:
  | Default logarithmic grid data [bohr] : 0.1000E-03 0.1000E+03 0.1012E+01
  Species N : On-site basis accuracy parameter (for Gram-Schmidt orthonormalisation) not specified.
  Using default value basis_acc =  0.1000000E-03.
  Species N                   : Using default innermost maximum threshold i_radial=  2 for radial functions.
  Species N                   : Default cutoff onset for free atom density etc. : 0.35000000E+01 AA.
  Species N                   : Basic radial grid will be enhanced according to radial_multiplier =   1, to contain    35 grid points.
 
  Reading configuration options for species O                   .
  | Found nuclear charge :   8.0000
  | Found atomic mass :    15.9994000000000      amu
  | Found l_max for Hartree potential  :   4
  | Found cutoff potl. onset [A], width [A], scale factor :    3.50000    1.50000    1.00000
  | Threshold for basis-dependent cutoff potential is   0.100000E-03
  | Found data for basic radial integration grid :    36 points, outermost radius =    5.000 A
  | Found multiplier for basic radial grid :   1
  | Found angular grid specification: user-specified.
  | Specified grid contains     5 separate shells.
  | Check grid settings after all constraints further below.
  | Found free-atom valence shell :  2 s   2.000
  | Found free-atom valence shell :  2 p   4.000
  | No ionic wave fns used. Skipping ion_occ.
  | No ionic wave fns used. Skipping ion_occ.
  | Found hydrogenic basis function :  2 p   1.800
  | Found hydrogenic basis function :  3 d   7.600
  | Found hydrogenic basis function :  3 s   6.400
  Species O                   : Missing cutoff potential type.
  Defaulting to exp(1/x)/(1-x)^2 type cutoff potential.
  Species O : No 'logarithmic' tag. Using default grid for free atom:
  | Default logarithmic grid data [bohr] : 0.1000E-03 0.1000E+03 0.1012E+01
  Species O : On-site basis accuracy parameter (for Gram-Schmidt orthonormalisation) not specified.
  Using default value basis_acc =  0.1000000E-03.
  Species O                   : Using default innermost maximum threshold i_radial=  2 for radial functions.
  Species O                   : Default cutoff onset for free atom density etc. : 0.35000000E+01 AA.
  Species O                   : Basic radial grid will be enhanced according to radial_multiplier =   1, to contain    36 grid points.
 
  Finished reading input file 'control.in'. Consistency checks are next.
 
  MPI_IN_PLACE appears to work with this MPI implementation.
  | Keeping use_mpi_in_place .true. (see manual).
  Target number of points in a grid batch is not set. Defaulting to  100
  Method for grid partitioning is not set. Defaulting to parallel hash+maxmin partitioning.
  Batch size limit is not set. Defaulting to    200
  By default, will store active basis functions for each batch.
  If in need of memory, prune_basis_once .false. can be used to disable this option.
  communication_type for Hartree potential was not specified.
  Defaulting to calc_hartree .
  Pulay mixer: Number of initial linear mixing iterations not set.
  Defaulting to    0 iterations.
  Work space size for distributed Hartree potential not set.
  Defaulting to   0.200000E+03 MB.
  Algorithm-dependent basis array size parameters:
  | n_max_pulay                         :       10
  Presetting      1001 iterations before the initial mixing cycle
  is restarted anyway using the sc_init_iter criterion / keyword.
  Presetting a factor      1.000 between actual scf density residual
  and density convergence criterion sc_accuracy_rho below which sc_init_iter
  takes no effect.
  Geometry relaxation not requested: no relaxation will be performed.
  Handling of forces: Unphysical translation and rotation will be removed from forces.
  No accuracy limit for integral partition fn. given. Defaulting to  0.1000E-14.
  No threshold value for u(r) in integrations given. Defaulting to  0.1000E-05.
  No accuracy for occupation numbers given. Defaulting to  0.1000E-12.
  No threshold value for occupation numbers given. Defaulting to  0.0000E+00.
  No accuracy for fermi level given. Defaulting to  0.1000E-19.
  Maximum # of iterations to find E_F not set. Defaulting to  200.
  Preferred method for the eigenvalue solver ('KS_method') not specified in 'control.in'.
  Defaulting to serial version, 'lapack_fast'.
  Will not use alltoall communication since running on < 1024 CPUs.
  Threshold for basis singularities not set.
  Default threshold for basis singularities:  0.1000E-04
  partition_type (choice of integration weights) for integrals was not specified.
  | Using a version of the partition function of Stratmann and coworkers ('stratmann_smoother').
  | At each grid point, the set of atoms used to build the partition table is smoothly restricted to
  | only those atoms whose free-atom density would be non-zero at that grid point.
  Partitioning for Hartree potential was not defined. Using partition_type for integrals.
  | Adjusted default value of keyword multip_moments_threshold to:       0.10000000E-11
  | This value may affect high angular momentum components of the Hartree potential in periodic systems.
  No q(lm)/r^(l+1) cutoff set for long-range Hartree potential.
  | Using default value of  0.100000E-09 .
  | Verify using the multipole_threshold keyword.
  Defaulting to new monopole extrapolation.
  Density update method: automatic selection selected.
------------------------------------------------------------


------------------------------------------------------------
          Reading geometry description geometry.in.
------------------------------------------------------------
  Input structure read successfully.
  The structure contains       13 atoms,  and a total of         48.000 electrons.

  Input geometry:
  | No unit cell requested.
  | Atomic structure:
  |       Atom                x [A]            y [A]            z [A]
  |    1: Species C             0.00000000        0.00000000        0.00000000
  |    2: Species H             1.09300000        0.00000000        0.00000000
  |    3: Species N            -0.47961000        0.00000000       -1.41207000
  |    4: Species H            -1.45085000       -0.31348000       -1.42762000
  |    5: Species H            -0.40929000        0.94602000       -1.78115000
  |    6: Species C            -0.49584000        1.26211000        0.72868000
  |    7: Species H            -1.58789000        1.28919000        0.74431000
  |    8: Species H            -0.13407000        1.27425000        1.75947000
  |    9: Species H            -0.13407000        2.16087000        0.22380000
  |   10: Species C            -0.39425000       -1.28861000        0.74398000
  |   11: Species O            -0.10189000       -1.56493000        1.88303000
  |   12: Species O            -1.10210000       -2.13717000        0.06896000
  |   13: Species H            -1.00940000       -2.90225000        0.66144000
  |

  | The smallest distance between any two atoms is         0.97209734 AA.
  |
  | The first atom of this pair is atom number                     12 .
  | The second atom of this pair is atom number                    13 .

  Number of empty states per atom not set in control.in - providing a guess from actual geometry.
  | Total number of empty states used during s.c.f. cycle:       29
  If you use a very high smearing, use empty_states (per atom!) in control.in to increase this value.

  Structure-dependent array size parameters: 
  | Maximum number of distinct radial functions  :       21
  | Maximum number of basis functions            :      119
  | Number of Kohn-Sham states (occupied + empty):       53
------------------------------------------------------------

------------------------------------------------------------
          Preparing all fixed parts of the calculation.
------------------------------------------------------------
  Determining machine precision:
    2.225073858507201E-308
  Setting up grids for atomic and cluster calculations.

  Creating wave function, potential, and density for free atoms.

  Species: H

  List of occupied orbitals and eigenvalues:
    n    l              occ      energy [Ha]    energy [eV]
    1    0           1.0000        -0.237589        -6.4651


  Species: C

  List of occupied orbitals and eigenvalues:
    n    l              occ      energy [Ha]    energy [eV]
    1    0           2.0000       -10.038835      -273.1706
    2    0           2.0000        -0.502696       -13.6791
    2    1           2.0000        -0.191971        -5.2238


  Species: N

  List of occupied orbitals and eigenvalues:
    n    l              occ      energy [Ha]    energy [eV]
    1    0           2.0000       -14.128000      -384.4424
    2    0           2.0000        -0.681077       -18.5330
    2    1           3.0000        -0.259788        -7.0692


  Species: O

  List of occupied orbitals and eigenvalues:
    n    l              occ      energy [Ha]    energy [eV]
    1    0           2.0000       -18.898188      -514.2459
    2    0           2.0000        -0.878505       -23.9053
    2    1           4.0000        -0.331779        -9.0282

  Creating fixed part of basis set: Ionic, confined, hydrogenic.
 
  H                    hydrogenic:
 
  List of hydrogenic basis orbitals: 
    n    l      effective z      eigenvalue [eV]  inner max. [A]     outer max. [A]     outer radius [A]   
    2    0         2.100000       -14.9728           0.193243           1.317208           4.583499
    2    1         3.500000       -41.6669           0.602369           0.602369           3.723403
 
 
  C                    hydrogenic:
 
  List of hydrogenic basis orbitals: 
    n    l      effective z      eigenvalue [eV]  inner max. [A]     outer max. [A]     outer radius [A]   
    2    1         1.700000        -9.7616           1.230570           1.230570           4.607917
    3    2         6.000000       -54.4224           0.792453           0.792453           3.883070
    2    0         4.900000       -81.6679           0.082559           0.562749           3.078220
 
 
  N                    hydrogenic:
 
  List of hydrogenic basis orbitals: 
    n    l      effective z      eigenvalue [eV]  inner max. [A]     outer max. [A]     outer radius [A]   
    2    1         1.800000       -10.9749           1.177451           1.177451           4.573712
    3    2         6.800000       -69.9026           0.704619           0.704619           3.538137
    3    0         5.800000       -50.8545           0.067388           1.191934           4.250239
 
 
  O                    hydrogenic:
 
  List of hydrogenic basis orbitals: 
    n    l      effective z      eigenvalue [eV]  inner max. [A]     outer max. [A]     outer radius [A]   
    2    1         1.800000       -10.9749           1.164242           1.164242           4.578029
    3    2         7.600000       -87.3180           0.624125           0.624125           3.251020
    3    0         6.400000       -61.9207           0.061167           1.081902           4.001998
 

  Adding cutoff potential to free-atom effective potential.
  Creating atomic-like basis functions for current effective potential.

  Species H                   :

  List of atomic basis orbitals and eigenvalues:
    n    l      energy [Ha]    energy [eV]    outer radius [A]
    1    0        -0.237589        -6.4651       4.527807


  Species C                   :

  List of atomic basis orbitals and eigenvalues:
    n    l      energy [Ha]    energy [eV]    outer radius [A]
    1    0       -10.038835      -273.1706       1.934409
    2    0        -0.502696       -13.6791       4.496620
    2    1        -0.191971        -5.2238       4.551928


  Species N                   :

  List of atomic basis orbitals and eigenvalues:
    n    l      energy [Ha]    energy [eV]    outer radius [A]
    1    0       -14.128000      -384.4424       1.637919
    2    0        -0.681077       -18.5330       4.463241
    2    1        -0.259788        -7.0692       4.518138


  Species O                   :

  List of atomic basis orbitals and eigenvalues:
    n    l      energy [Ha]    energy [eV]    outer radius [A]
    1    0       -18.898188      -514.2459       1.415765
    2    0        -0.878505       -23.9053       4.413171
    2    1        -0.331779        -9.0282       4.522403

  Assembling full basis from fixed parts.
  | Species H :   atomic orbital   1 s accepted.
  | Species H :    hydro orbital   2 s accepted.
  | Species H :    hydro orbital   2 p accepted.
  | Species C :   atomic orbital   1 s accepted.
  | Species C :    hydro orbital   2 s accepted.
  | Species C :   atomic orbital   2 s accepted.
  | Species C :   atomic orbital   2 p accepted.
  | Species C :    hydro orbital   2 p accepted.
  | Species C :    hydro orbital   3 d accepted.
  | Species N :   atomic orbital   1 s accepted.
  | Species N :    hydro orbital   3 s accepted.
  | Species N :   atomic orbital   2 s accepted.
  | Species N :   atomic orbital   2 p accepted.
  | Species N :    hydro orbital   2 p accepted.
  | Species N :    hydro orbital   3 d accepted.
  | Species O :   atomic orbital   1 s accepted.
  | Species O :    hydro orbital   3 s accepted.
  | Species O :   atomic orbital   2 s accepted.
  | Species O :   atomic orbital   2 p accepted.
  | Species O :    hydro orbital   2 p accepted.
  | Species O :    hydro orbital   3 d accepted.
 
  Basis size parameters after reduction:
  | Total number of radial functions:       21
  | Total number of basis functions :      119
 
  Per-task memory consumption for arrays in subroutine allocate_ext:
  |           5.250512MB.
  Testing on-site integration grid accuracy.
  |  Species  Function  <phi|h_atom|phi> (log., in eV)  <phi|h_atom|phi> (rad., in eV)
           1        1                 -6.4663192853                 -6.4651273558
           1        2                 13.7111246313                 13.7170609718
           1        3                 25.2673269279                 25.2674696378
           2        4               -273.1705927641               -273.1705631568
           2        5                -10.7109323383                -10.7107120029
           2        6                 17.4381822266                 17.4352413244
           2        7                 -5.2255326521                 -5.2270484734
           2        8                  8.6835629259                  8.6603288385
           2        9                 27.4952418996                 27.4953360207
           3       10               -384.4424306495               -384.4423701208
           3       11                 12.5842251816                 12.5842222903
           3       12                -15.7264628251                -15.7264433455
           3       13                 -7.0696854293                 -7.0701769954
           3       14                  8.8090390882                  8.7901077751
           3       15                 35.9586762123                 35.9588528632
           4       16               -514.2458688638               -514.2457643834
           4       17                 15.1795651126                 15.1795290741
           4       18                -21.5359799773                -21.5360846186
           4       19                 -9.0283069236                 -9.0284644067
           4       20                  8.3027758564                  8.2834874195
           4       21                 45.8339351984                 45.8338762259

  Preparing densities etc. for the partition functions (integrals / Hartree potential).

  Preparations completed.
  max(cpu_time)          :      0.148 s.
  Wall clock time (cpu1) :      0.150 s.
------------------------------------------------------------

------------------------------------------------------------
          Begin self-consistency loop: Initialization.

          Date     :  20200710, Time     :  144702.944
------------------------------------------------------------

  Initializing index lists of integration centers etc. from given atomic structure:
  | Number of centers in hartree potential         :        13
  | Number of centers in hartree multipole         :        13
  | Number of centers in electron density summation:        13
  | Number of centers in basis integrals           :        13
  | Number of centers in integrals                 :        13
  | Number of centers in hamiltonian               :        13
  Partitioning the integration grid into batches with parallel hashing+maxmin method.
  | Number of batches:      956
  | Maximal batch size:     139
  | Minimal batch size:      66
  | Average batch size:      72.851
  | Standard deviation of batch sizes:      17.496

  Integration load balanced across     1 MPI tasks.
  Work distribution over tasks is as follows:
  Task     0 has      69646 integration points.
  Initializing partition tables, free-atom densities, potentials, etc. across the integration grid (initialize_grid_storage).
  | initialize_grid_storage: Actual outermost partition radius vs. multipole_radius_free
  | (-- VB: in principle, multipole_radius_free should be larger, hence this output)
  | Species        1: Confinement radius =              4.999999999999999 AA, multipole_radius_free =              5.054417573612229 AA.
  | Species        1: outer_partition_radius set to              5.054417573612229 AA .
  | Species        2: Confinement radius =              4.999999999999999 AA, multipole_radius_free =              5.019602836301480 AA.
  | Species        2: outer_partition_radius set to              5.019602836301480 AA .
  | Species        3: Confinement radius =              4.999999999999999 AA, multipole_radius_free =              5.043624274424571 AA.
  | Species        3: outer_partition_radius set to              5.043624274424571 AA .
  | Species        4: Confinement radius =              4.999999999999999 AA, multipole_radius_free =              5.048384829883283 AA.
  | Species        4: outer_partition_radius set to              5.048384829883283 AA .
  | Original list of interatomic distances with          13 x         13 entries is created.
  | Net number of integration points:    69646
  | of which are non-zero points    :    59517
  Renormalizing the initial density to the exact electron count on the 3D integration grid.
  | Initial density: Formal number of electrons (from input files) :      48.0000000000
  | Integrated number of electrons on 3D grid     :      47.9998582835
  | Charge integration error                      :      -0.0001417165
  | Normalization factor for density and gradient :       1.0000029524
  Obtaining max. number of non-zero basis functions in each batch (get_n_compute_maxes).
  | Maximal number of non-zero basis functions:      119 in task     0
  Selecting the method for density update.
  Loop over occupied states selected for charge density update.
  Allocating        0.050 MB for KS_eigenvector
  Integrating Hamiltonian matrix: batch-based integration.
  Time summed over all CPUs for integration: real work        0.492 s, elapsed        0.492 s
  Integrating overlap matrix.
  Time summed over all CPUs for integration: real work        0.209 s, elapsed        0.209 s

  Updating Kohn-Sham eigenvalues and eigenvectors using ELSI and the ELPA eigensolver.
  Overlap matrix is nonsingular
  | Lowest eigenvalue of overlap  :  0.58E-02
  | Highest eigenvalue of overlap :  0.61E+01
  Finished singularity check of overlap matrix
  | Time :     0.002 s
  Finished Cholesky decomposition
  | Time :     0.000 s
  Finished transformation to standard eigenproblem
  | Time :     0.000 s
  Starting LAPACK eigensolver
  Finished solving standard eigenproblem
  | Time :     0.002 s
  Finished back-transformation of eigenvectors
  | Time :     0.000 s

  Obtaining occupation numbers and chemical potential using ELSI.
  | Chemical potential (Fermi level):    -9.08386688eV
  Writing Kohn-Sham eigenvalues.

  State    Occupation    Eigenvalue [Ha]    Eigenvalue [eV]
      1       2.00000         -19.007820         -517.22910
      2       2.00000         -18.978310         -516.42609
      3       2.00000         -14.245790         -387.64768
      4       2.00000         -10.166819         -276.65321
      5       2.00000         -10.141237         -275.95711
      6       2.00000         -10.132017         -275.70621
      7       2.00000          -1.188301          -32.33531
      8       2.00000          -1.093142          -29.74591
      9       2.00000          -0.992284          -27.00143
     10       2.00000          -0.858611          -23.36399
     11       2.00000          -0.764019          -20.79001
     12       2.00000          -0.683192          -18.59061
     13       2.00000          -0.619998          -16.87101
     14       2.00000          -0.601287          -16.36185
     15       2.00000          -0.580528          -15.79696
     16       2.00000          -0.569054          -15.48473
     17       2.00000          -0.549935          -14.96449
     18       2.00000          -0.534071          -14.53282
     19       2.00000          -0.526920          -14.33821
     20       2.00000          -0.492978          -13.41461
     21       2.00000          -0.479167          -13.03879
     22       2.00000          -0.428802          -11.66829
     23       2.00000          -0.401602          -10.92816
     24       2.00000          -0.391500          -10.65326
     25       0.00000          -0.149159           -4.05882
     26       0.00000          -0.058412           -1.58948
     27       0.00000          -0.026912           -0.73230
     28       0.00000          -0.021115           -0.57456
     29       0.00000          -0.001987           -0.05406
     30       0.00000           0.008273            0.22513
     31       0.00000           0.024150            0.65716
     32       0.00000           0.038267            1.04131
     33       0.00000           0.042852            1.16606
     34       0.00000           0.058447            1.59041
     35       0.00000           0.079108            2.15263
     36       0.00000           0.133827            3.64161
     37       0.00000           0.150431            4.09343
     38       0.00000           0.205030            5.57914
     39       0.00000           0.210050            5.71574
     40       0.00000           0.225461            6.13511
     41       0.00000           0.261179            7.10705
     42       0.00000           0.274174            7.46066
     43       0.00000           0.294411            8.01132
     44       0.00000           0.313310            8.52561
     45       0.00000           0.323284            8.79702
     46       0.00000           0.347142            9.44622
     47       0.00000           0.375644           10.22180
     48       0.00000           0.384821           10.47150
     49       0.00000           0.452812           12.32165
     50       0.00000           0.465354           12.66292
     51       0.00000           0.521375           14.18733
     52       0.00000           0.530097           14.42467
     53       0.00000           0.584567           15.90688

  Highest occupied state (VBM) at    -10.65326148 eV
  | Occupation number:      2.00000000

  Lowest unoccupied state (CBM) at    -4.05882297 eV
  | Occupation number:      0.00000000

  Overall HOMO-LUMO gap:      6.59443851 eV.
  Calculating total energy contributions from superposition of free atom densities.

  Total energy components:
  | Sum of eigenvalues            :        -188.85476759 Ha       -5138.99969552 eV
  | XC energy correction          :         -41.78920216 Ha       -1137.14204779 eV
  | XC potential correction       :          53.72067118 Ha        1461.81383919 eV
  | Free-atom electrostatic energy:        -146.84974164 Ha       -3995.98478350 eV
  | Hartree energy correction     :           0.00000000 Ha           0.00000000 eV
  | vdW energy correction         :           0.00000000 Ha           0.00000000 eV
  | Entropy correction            :           0.00000000 Ha           0.00000000 eV
  | ---------------------------
  | Total energy                  :        -323.77304020 Ha       -8810.31268762 eV
  | Total energy, T -> 0          :        -323.77304020 Ha       -8810.31268762 eV  <-- do not rely on this value for anything but (periodic) metals
  | Electronic free energy        :        -323.77304020 Ha       -8810.31268762 eV

  Derived energy quantities:
  | Kinetic energy                :         320.48507741 Ha        8720.84266801 eV
  | Electrostatic energy          :        -602.46891546 Ha      -16394.01330784 eV
  | Energy correction for multipole
  | error in Hartree potential    :           0.00000000 Ha           0.00000000 eV
  | Sum of eigenvalues per atom                           :        -395.30766889 eV
  | Total energy (T->0) per atom                          :        -677.71636059 eV  <-- do not rely on this value for anything but (periodic) metals
  | Electronic free energy per atom                       :        -677.71636059 eV
  Initialize hartree_potential_storage
  Max. number of atoms included in rho_multipole:           13

  End scf initialization - timings             :  max(cpu_time)    wall_clock(cpu1)
  | Time for scf. initialization               :        1.148 s           1.149 s
  | Boundary condition initialization          :        0.000 s           0.000 s
  | Integration                                :        0.702 s           0.702 s
  | Solution of K.-S. eqns.                    :        0.004 s           0.005 s
  | Grid partitioning                          :        0.112 s           0.113 s
  | Preloading free-atom quantities on grid    :        0.002 s           0.002 s
  | Free-atom superposition energy             :        0.084 s           0.085 s
  | Total energy evaluation                    :        0.000 s           0.000 s

  Partial memory accounting:
  | Current value for overall tracked memory usage on task 0  :           0.165 MB
  | Peak value for overall tracked memory usage on task 0     :           0.678 MB after allocating wave
  | Largest tracked array allocation on task 0 so far         :           0.132 MB  when allocating H_times_psi
  Note:  These values currently only include a subset of arrays which are explicitly tracked.
  The "true" memory usage will be greater.
------------------------------------------------------------

------------------------------------------------------------
          Begin self-consistency iteration #    1

  Date     :  20200710, Time     :  144704.093
------------------------------------------------------------
  Evaluating new KS density.
  Integration grid: deviation in total charge (<rho> - N_e) =   4.263256E-14
  Pulay mixing of updated and previous charge densities.

  Evaluating partitioned Hartree potential by multipole expansion.
  | Analytical far-field extrapolation by fixed multipoles:
  | Hartree multipole sum: apparent total charge =  -0.255032E-03
  Summing up the Hartree potential.
  Time summed over all CPUs for potential: real work        0.282 s, elapsed        0.282 s
  | RMS charge density error from multipole expansion :   0.592825E-02

  Integrating Hamiltonian matrix: batch-based integration.
  Time summed over all CPUs for integration: real work        0.490 s, elapsed        0.490 s

  Updating Kohn-Sham eigenvalues and eigenvectors using ELSI and the ELPA eigensolver.
  Finished Cholesky decomposition
  | Time :     0.000 s
  Finished transformation to standard eigenproblem
  | Time :     0.000 s
  Starting LAPACK eigensolver
  Finished solving standard eigenproblem
  | Time :     0.001 s
  Finished back-transformation of eigenvectors
  | Time :     0.000 s

  Obtaining occupation numbers and chemical potential using ELSI.
  | Chemical potential (Fermi level):    -7.90205331eV
  Writing Kohn-Sham eigenvalues.

  State    Occupation    Eigenvalue [Ha]    Eigenvalue [eV]
      1       2.00000         -18.907490         -514.49897
      2       2.00000         -18.838774         -512.62911
      3       2.00000         -14.094189         -383.52239
      4       2.00000         -10.115720         -275.26274
      5       2.00000         -10.061949         -273.79957
      6       2.00000         -10.031098         -272.96006
      7       2.00000          -1.139944          -31.01945
      8       2.00000          -1.031399          -28.06579
      9       2.00000          -0.920922          -25.05958
     10       2.00000          -0.792088          -21.55380
     11       2.00000          -0.713590          -19.41778
     12       2.00000          -0.635909          -17.30396
     13       2.00000          -0.564530          -15.36164
     14       2.00000          -0.536655          -14.60313
     15       2.00000          -0.519773          -14.14373
     16       2.00000          -0.513468          -13.97218
     17       2.00000          -0.490008          -13.33378
     18       2.00000          -0.474189          -12.90335
     19       2.00000          -0.466442          -12.69253
     20       2.00000          -0.435263          -11.84410
     21       2.00000          -0.427134          -11.62291
     22       2.00000          -0.368165          -10.01828
     23       2.00000          -0.332485           -9.04738
     24       2.00000          -0.313640           -8.53458
     25       0.00000          -0.112333           -3.05674
     26       0.00000          -0.031037           -0.84457
     27       0.00000           0.000005            0.00013
     28       0.00000           0.016956            0.46138
     29       0.00000           0.028402            0.77286
     30       0.00000           0.045212            1.23029
     31       0.00000           0.059397            1.61626
     32       0.00000           0.078516            2.13652
     33       0.00000           0.084682            2.30433
     34       0.00000           0.100764            2.74194
     35       0.00000           0.121071            3.29452
     36       0.00000           0.160945            4.37953
     37       0.00000           0.176275            4.79670
     38       0.00000           0.232126            6.31646
     39       0.00000           0.238262            6.48343
     40       0.00000           0.265422            7.22250
     41       0.00000           0.294918            8.02514
     42       0.00000           0.307508            8.36772
     43       0.00000           0.336487            9.15628
     44       0.00000           0.349552            9.51178
     45       0.00000           0.361361            9.83314
     46       0.00000           0.384310           10.45761
     47       0.00000           0.413130           11.24185
     48       0.00000           0.423787           11.53183
     49       0.00000           0.491686           13.37945
     50       0.00000           0.500343           13.61503
     51       0.00000           0.558134           15.18759
     52       0.00000           0.567465           15.44150
     53       0.00000           0.625200           17.01255

  Highest occupied state (VBM) at     -8.53458205 eV
  | Occupation number:      2.00000000

  Lowest unoccupied state (CBM) at    -3.05673984 eV
  | Occupation number:      0.00000000

  Overall HOMO-LUMO gap:      5.47784221 eV.

  Total energy components:
  | Sum of eigenvalues            :        -185.44964455 Ha       -5046.34158325 eV
  | XC energy correction          :         -42.11673776 Ha       -1146.05474510 eV
  | XC potential correction       :          54.14664918 Ha        1473.40529018 eV
  | Free-atom electrostatic energy:        -146.84974164 Ha       -3995.98478350 eV
  | Hartree energy correction     :          -3.32389870 Ha         -90.44788567 eV
  | vdW energy correction         :           0.00000000 Ha           0.00000000 eV
  | Entropy correction            :           0.00000000 Ha           0.00000000 eV
  | ---------------------------
  | Total energy                  :        -323.59337348 Ha       -8805.42370733 eV
  | Total energy, T -> 0          :        -323.59337348 Ha       -8805.42370733 eV  <-- do not rely on this value for anything but (periodic) metals
  | Electronic free energy        :        -323.59337348 Ha       -8805.42370733 eV

  Derived energy quantities:
  | Kinetic energy                :         322.26885055 Ha        8769.38160455 eV
  | Electrostatic energy          :        -603.74548626 Ha      -16428.75056679 eV
  | Energy correction for multipole
  | error in Hartree potential    :           0.01198422 Ha           0.32610711 eV
  | Sum of eigenvalues per atom                           :        -388.18012179 eV
  | Total energy (T->0) per atom                          :        -677.34028518 eV  <-- do not rely on this value for anything but (periodic) metals
  | Electronic free energy per atom                       :        -677.34028518 eV

  Self-consistency convergence accuracy:
  | Change of charge density      :  0.5806E+00
  | Change of sum of eigenvalues  :  0.9266E+02 eV
  | Change of total energy        :  0.4889E+01 eV

  End self-consistency iteration #     1       :  max(cpu_time)    wall_clock(cpu1)
  | Time for this iteration                    :        1.181 s           1.182 s
  | Charge density update                      :        0.390 s           0.391 s
  | Density mixing                             :        0.005 s           0.005 s
  | Hartree multipole update                   :        0.009 s           0.009 s
  | Hartree multipole summation                :        0.283 s           0.284 s
  | Integration                                :        0.491 s           0.491 s
  | Solution of K.-S. eqns.                    :        0.002 s           0.002 s
  | Total energy evaluation                    :        0.000 s           0.000 s

  Partial memory accounting:
  | Current value for overall tracked memory usage on task 0  :           0.165 MB
  | Peak value for overall tracked memory usage on task 0     :           0.695 MB after allocating gradient_basis_wave
  | Largest tracked array allocation on task 0 so far         :           0.397 MB  when allocating gradient_basis_wave
  Note:  These values currently only include a subset of arrays which are explicitly tracked.
  The "true" memory usage will be greater.
------------------------------------------------------------

------------------------------------------------------------
          Begin self-consistency iteration #    2

  Date     :  20200710, Time     :  144705.276
------------------------------------------------------------
  Evaluating new KS density.
  Integration grid: deviation in total charge (<rho> - N_e) =  -7.105427E-15
  Pulay mixing of updated and previous charge densities.

  Evaluating partitioned Hartree potential by multipole expansion.
  | Analytical far-field extrapolation by fixed multipoles:
  | Hartree multipole sum: apparent total charge =  -0.401037E-03
  Summing up the Hartree potential.
  Time summed over all CPUs for potential: real work        0.282 s, elapsed        0.282 s
  | RMS charge density error from multipole expansion :   0.142229E-01

  Integrating Hamiltonian matrix: batch-based integration.
  Time summed over all CPUs for integration: real work        0.490 s, elapsed        0.490 s

  Updating Kohn-Sham eigenvalues and eigenvectors using ELSI and the ELPA eigensolver.
  Finished Cholesky decomposition
  | Time :     0.000 s
  Finished transformation to standard eigenproblem
  | Time :     0.000 s
  Starting LAPACK eigensolver
  Finished solving standard eigenproblem
  | Time :     0.001 s
  Finished back-transformation of eigenvectors
  | Time :     0.000 s

  Obtaining occupation numbers and chemical potential using ELSI.
  | Chemical potential (Fermi level):    -2.38286405eV
  Highest occupied state (VBM) at     -6.37548053 eV
  | Occupation number:      2.00000000

  Lowest unoccupied state (CBM) at    -1.78003409 eV
  | Occupation number:      0.00000000

  Overall HOMO-LUMO gap:      4.59544644 eV.

  Checking to see if s.c.f. parameters should be adjusted.

  Total energy components:
  | Sum of eigenvalues            :        -181.83151658 Ha       -4947.88731180 eV
  | XC energy correction          :         -42.48088675 Ha       -1155.96374333 eV
  | XC potential correction       :          54.61868596 Ha        1486.25006463 eV
  | Free-atom electrostatic energy:        -146.84974164 Ha       -3995.98478350 eV
  | Hartree energy correction     :          -6.97222508 Ha        -189.72389734 eV
  | vdW energy correction         :           0.00000000 Ha           0.00000000 eV
  | Entropy correction            :           0.00000000 Ha           0.00000000 eV
  | ---------------------------
  | Total energy                  :        -323.51568408 Ha       -8803.30967134 eV
  | Total energy, T -> 0          :        -323.51568408 Ha       -8803.30967134 eV  <-- do not rely on this value for anything but (periodic) metals
  | Electronic free energy        :        -323.51568408 Ha       -8803.30967134 eV

  Derived energy quantities:
  | Kinetic energy                :         323.60577433 Ha        8805.76115185 eV
  | Electrostatic energy          :        -604.64057166 Ha      -16453.10707986 eV
  | Energy correction for multipole
  | error in Hartree potential    :           0.02680828 Ha           0.72949054 eV
  | Sum of eigenvalues per atom                           :        -380.60671629 eV
  | Total energy (T->0) per atom                          :        -677.17766703 eV  <-- do not rely on this value for anything but (periodic) metals
  | Electronic free energy per atom                       :        -677.17766703 eV

  Self-consistency convergence accuracy:
  | Change of charge density      :  0.3626E+00
  | Change of sum of eigenvalues  :  0.9845E+02 eV
  | Change of total energy        :  0.2114E+01 eV

  End self-consistency iteration #     2       :  max(cpu_time)    wall_clock(cpu1)
  | Time for this iteration                    :        1.172 s           1.173 s
  | Charge density update                      :        0.382 s           0.382 s
  | Density mixing                             :        0.007 s           0.007 s
  | Hartree multipole update                   :        0.009 s           0.009 s
  | Hartree multipole summation                :        0.282 s           0.282 s
  | Integration                                :        0.490 s           0.490 s
  | Solution of K.-S. eqns.                    :        0.002 s           0.003 s
  | Total energy evaluation                    :        0.000 s           0.000 s

  Partial memory accounting:
  | Current value for overall tracked memory usage on task 0  :           0.166 MB
  | Peak value for overall tracked memory usage on task 0     :           0.695 MB after allocating gradient_basis_wave
  | Largest tracked array allocation on task 0 so far         :           0.397 MB  when allocating gradient_basis_wave
  Note:  These values currently only include a subset of arrays which are explicitly tracked.
  The "true" memory usage will be greater.
------------------------------------------------------------

------------------------------------------------------------
          Begin self-consistency iteration #    3

  Date     :  20200710, Time     :  144706.451
------------------------------------------------------------
  Evaluating new KS density.
  Integration grid: deviation in total charge (<rho> - N_e) =   5.684342E-14
  Pulay mixing of updated and previous charge densities.

  Evaluating partitioned Hartree potential by multipole expansion.
  | Analytical far-field extrapolation by fixed multipoles:
  | Hartree multipole sum: apparent total charge =  -0.501974E-03
  Summing up the Hartree potential.
  Time summed over all CPUs for potential: real work        0.282 s, elapsed        0.282 s
  | RMS charge density error from multipole expansion :   0.226260E-01

  Integrating Hamiltonian matrix: batch-based integration.
  Time summed over all CPUs for integration: real work        0.491 s, elapsed        0.491 s

  Updating Kohn-Sham eigenvalues and eigenvectors using ELSI and the ELPA eigensolver.
  Finished Cholesky decomposition
  | Time :     0.000 s
  Finished transformation to standard eigenproblem
  | Time :     0.000 s
  Starting LAPACK eigensolver
  Finished solving standard eigenproblem
  | Time :     0.002 s
  Finished back-transformation of eigenvectors
  | Time :     0.000 s

  Obtaining occupation numbers and chemical potential using ELSI.
  | Chemical potential (Fermi level):    -1.68971667eV
  Highest occupied state (VBM) at     -5.71148510 eV
  | Occupation number:      2.00000000

  Lowest unoccupied state (CBM) at    -1.10045565 eV
  | Occupation number:      0.00000000

  Overall HOMO-LUMO gap:      4.61102945 eV.

  Total energy components:
  | Sum of eigenvalues            :        -180.59523025 Ha       -4914.24624924 eV
  | XC energy correction          :         -42.62777483 Ha       -1159.96077121 eV
  | XC potential correction       :          54.80568831 Ha        1491.33865727 eV
  | Free-atom electrostatic energy:        -146.84974164 Ha       -3995.98478350 eV
  | Hartree energy correction     :          -8.23676667 Ha        -224.13382503 eV
  | vdW energy correction         :           0.00000000 Ha           0.00000000 eV
  | Entropy correction            :           0.00000000 Ha           0.00000000 eV
  | ---------------------------
  | Total energy                  :        -323.50382509 Ha       -8802.98697172 eV
  | Total energy, T -> 0          :        -323.50382509 Ha       -8802.98697172 eV  <-- do not rely on this value for anything but (periodic) metals
  | Electronic free energy        :        -323.50382509 Ha       -8802.98697172 eV

  Derived energy quantities:
  | Kinetic energy                :         323.12989350 Ha        8792.81177537 eV
  | Electrostatic energy          :        -604.00594376 Ha      -16435.83797588 eV
  | Energy correction for multipole
  | error in Hartree potential    :           0.03844907 Ha           1.04625248 eV
  | Sum of eigenvalues per atom                           :        -378.01894225 eV
  | Total energy (T->0) per atom                          :        -677.15284398 eV  <-- do not rely on this value for anything but (periodic) metals
  | Electronic free energy per atom                       :        -677.15284398 eV

  Self-consistency convergence accuracy:
  | Change of charge density      :  0.2005E+00
  | Change of sum of eigenvalues  :  0.3364E+02 eV
  | Change of total energy        :  0.3227E+00 eV

  End self-consistency iteration #     3       :  max(cpu_time)    wall_clock(cpu1)
  | Time for this iteration                    :        1.174 s           1.181 s
  | Charge density update                      :        0.382 s           0.389 s
  | Density mixing                             :        0.008 s           0.008 s
  | Hartree multipole update                   :        0.009 s           0.009 s
  | Hartree multipole summation                :        0.282 s           0.282 s
  | Integration                                :        0.491 s           0.491 s
  | Solution of K.-S. eqns.                    :        0.002 s           0.002 s
  | Total energy evaluation                    :        0.000 s           0.000 s

  Partial memory accounting:
  | Current value for overall tracked memory usage on task 0  :           0.166 MB
  | Peak value for overall tracked memory usage on task 0     :           0.695 MB after allocating gradient_basis_wave
  | Largest tracked array allocation on task 0 so far         :           0.397 MB  when allocating gradient_basis_wave
  Note:  These values currently only include a subset of arrays which are explicitly tracked.
  The "true" memory usage will be greater.
------------------------------------------------------------

------------------------------------------------------------
          Begin self-consistency iteration #    4

  Date     :  20200710, Time     :  144707.634
------------------------------------------------------------
  Evaluating new KS density.
  Integration grid: deviation in total charge (<rho> - N_e) =   2.131628E-14
  Pulay mixing of updated and previous charge densities.

  Evaluating partitioned Hartree potential by multipole expansion.
  | Analytical far-field extrapolation by fixed multipoles:
  | Hartree multipole sum: apparent total charge =  -0.533260E-03
  Summing up the Hartree potential.
  Time summed over all CPUs for potential: real work        0.281 s, elapsed        0.281 s
  | RMS charge density error from multipole expansion :   0.258940E-01

  Integrating Hamiltonian matrix: batch-based integration.
  Time summed over all CPUs for integration: real work        0.490 s, elapsed        0.490 s

  Updating Kohn-Sham eigenvalues and eigenvectors using ELSI and the ELPA eigensolver.
  Finished Cholesky decomposition
  | Time :     0.000 s
  Finished transformation to standard eigenproblem
  | Time :     0.000 s
  Starting LAPACK eigensolver
  Finished solving standard eigenproblem
  | Time :     0.002 s
  Finished back-transformation of eigenvectors
  | Time :     0.000 s

  Obtaining occupation numbers and chemical potential using ELSI.
  | Chemical potential (Fermi level):    -1.60607664eV
  Highest occupied state (VBM) at     -5.54697794 eV
  | Occupation number:      2.00000000

  Lowest unoccupied state (CBM) at    -1.02875517 eV
  | Occupation number:      0.00000000

  Overall HOMO-LUMO gap:      4.51822278 eV.

  Total energy components:
  | Sum of eigenvalues            :        -180.44815256 Ha       -4910.24406174 eV
  | XC energy correction          :         -42.66469973 Ha       -1160.96554895 eV
  | XC potential correction       :          54.85224581 Ha        1492.60555131 eV
  | Free-atom electrostatic energy:        -146.84974164 Ha       -3995.98478350 eV
  | Hartree energy correction     :          -8.39274903 Ha        -228.37832083 eV
  | vdW energy correction         :           0.00000000 Ha           0.00000000 eV
  | Entropy correction            :           0.00000000 Ha           0.00000000 eV
  | ---------------------------
  | Total energy                  :        -323.50309716 Ha       -8802.96716370 eV
  | Total energy, T -> 0          :        -323.50309716 Ha       -8802.96716370 eV  <-- do not rely on this value for anything but (periodic) metals
  | Electronic free energy        :        -323.50309716 Ha       -8802.96716370 eV

  Derived energy quantities:
  | Kinetic energy                :         322.78546438 Ha        8783.43938212 eV
  | Electrostatic energy          :        -603.62386180 Ha      -16425.44099687 eV
  | Energy correction for multipole
  | error in Hartree potential    :           0.04257388 Ha           1.15849435 eV
  | Sum of eigenvalues per atom                           :        -377.71108167 eV
  | Total energy (T->0) per atom                          :        -677.15132028 eV  <-- do not rely on this value for anything but (periodic) metals
  | Electronic free energy per atom                       :        -677.15132028 eV

  Self-consistency convergence accuracy:
  | Change of charge density      :  0.5928E-01
  | Change of sum of eigenvalues  :  0.4002E+01 eV
  | Change of total energy        :  0.1981E-01 eV

  End self-consistency iteration #     4       :  max(cpu_time)    wall_clock(cpu1)
  | Time for this iteration                    :        1.175 s           1.176 s
  | Charge density update                      :        0.382 s           0.382 s
  | Density mixing                             :        0.009 s           0.010 s
  | Hartree multipole update                   :        0.009 s           0.009 s
  | Hartree multipole summation                :        0.282 s           0.282 s
  | Integration                                :        0.490 s           0.490 s
  | Solution of K.-S. eqns.                    :        0.002 s           0.002 s
  | Total energy evaluation                    :        0.000 s           0.001 s

  Partial memory accounting:
  | Current value for overall tracked memory usage on task 0  :           0.166 MB
  | Peak value for overall tracked memory usage on task 0     :           0.696 MB after allocating gradient_basis_wave
  | Largest tracked array allocation on task 0 so far         :           0.397 MB  when allocating gradient_basis_wave
  Note:  These values currently only include a subset of arrays which are explicitly tracked.
  The "true" memory usage will be greater.
------------------------------------------------------------

------------------------------------------------------------
          Begin self-consistency iteration #    5

  Date     :  20200710, Time     :  144708.810
------------------------------------------------------------
  Evaluating new KS density.
  Integration grid: deviation in total charge (<rho> - N_e) =  -2.842171E-14
  Pulay mixing of updated and previous charge densities.

  Evaluating partitioned Hartree potential by multipole expansion.
  | Analytical far-field extrapolation by fixed multipoles:
  | Hartree multipole sum: apparent total charge =  -0.527152E-03
  Summing up the Hartree potential.
  Time summed over all CPUs for potential: real work        0.282 s, elapsed        0.282 s
  | RMS charge density error from multipole expansion :   0.256310E-01

  Integrating Hamiltonian matrix: batch-based integration.
  Time summed over all CPUs for integration: real work        0.489 s, elapsed        0.489 s

  Updating Kohn-Sham eigenvalues and eigenvectors using ELSI and the ELPA eigensolver.
  Finished Cholesky decomposition
  | Time :     0.000 s
  Finished transformation to standard eigenproblem
  | Time :     0.000 s
  Starting LAPACK eigensolver
  Finished solving standard eigenproblem
  | Time :     0.001 s
  Finished back-transformation of eigenvectors
  | Time :     0.000 s

  Obtaining occupation numbers and chemical potential using ELSI.
  | Chemical potential (Fermi level):    -1.66098108eV
  Highest occupied state (VBM) at     -5.61880308 eV
  | Occupation number:      2.00000000

  Lowest unoccupied state (CBM) at    -1.10210871 eV
  | Occupation number:      0.00000000

  Overall HOMO-LUMO gap:      4.51669437 eV.

  Total energy components:
  | Sum of eigenvalues            :        -180.61671212 Ha       -4914.83080075 eV
  | XC energy correction          :         -42.64376824 Ha       -1160.39597414 eV
  | XC potential correction       :          54.82511158 Ha        1491.86719137 eV
  | Free-atom electrostatic energy:        -146.84974164 Ha       -3995.98478350 eV
  | Hartree energy correction     :          -8.21769428 Ha        -223.61483882 eV
  | vdW energy correction         :           0.00000000 Ha           0.00000000 eV
  | Entropy correction            :           0.00000000 Ha           0.00000000 eV
  | ---------------------------
  | Total energy                  :        -323.50280471 Ha       -8802.95920586 eV
  | Total energy, T -> 0          :        -323.50280471 Ha       -8802.95920586 eV  <-- do not rely on this value for anything but (periodic) metals
  | Electronic free energy        :        -323.50280471 Ha       -8802.95920586 eV

  Derived energy quantities:
  | Kinetic energy                :         322.69723526 Ha        8781.03854568 eV
  | Electrostatic energy          :        -603.55627173 Ha      -16423.60177739 eV
  | Energy correction for multipole
  | error in Hartree potential    :           0.04198460 Ha           1.14245920 eV
  | Sum of eigenvalues per atom                           :        -378.06390775 eV
  | Total energy (T->0) per atom                          :        -677.15070814 eV  <-- do not rely on this value for anything but (periodic) metals
  | Electronic free energy per atom                       :        -677.15070814 eV

  Self-consistency convergence accuracy:
  | Change of charge density      :  0.2061E-01
  | Change of sum of eigenvalues  : -0.4587E+01 eV
  | Change of total energy        :  0.7958E-02 eV

  End self-consistency iteration #     5       :  max(cpu_time)    wall_clock(cpu1)
  | Time for this iteration                    :        1.176 s           1.177 s
  | Charge density update                      :        0.382 s           0.383 s
  | Density mixing                             :        0.011 s           0.011 s
  | Hartree multipole update                   :        0.009 s           0.009 s
  | Hartree multipole summation                :        0.282 s           0.282 s
  | Integration                                :        0.489 s           0.490 s
  | Solution of K.-S. eqns.                    :        0.002 s           0.002 s
  | Total energy evaluation                    :        0.000 s           0.000 s

  Partial memory accounting:
  | Current value for overall tracked memory usage on task 0  :           0.166 MB
  | Peak value for overall tracked memory usage on task 0     :           0.696 MB after allocating gradient_basis_wave
  | Largest tracked array allocation on task 0 so far         :           0.397 MB  when allocating gradient_basis_wave
  Note:  These values currently only include a subset of arrays which are explicitly tracked.
  The "true" memory usage will be greater.
------------------------------------------------------------

------------------------------------------------------------
          Begin self-consistency iteration #    6

  Date     :  20200710, Time     :  144709.989
------------------------------------------------------------
  Evaluating new KS density.
  Integration grid: deviation in total charge (<rho> - N_e) =   2.131628E-14
  Pulay mixing of updated and previous charge densities.

  Evaluating partitioned Hartree potential by multipole expansion.
  | Analytical far-field extrapolation by fixed multipoles:
  | Hartree multipole sum: apparent total charge =  -0.528792E-03
  Summing up the Hartree potential.
  Time summed over all CPUs for potential: real work        0.282 s, elapsed        0.282 s
  | RMS charge density error from multipole expansion :   0.259639E-01

  Integrating Hamiltonian matrix: batch-based integration.
  Time summed over all CPUs for integration: real work        0.490 s, elapsed        0.490 s

  Updating Kohn-Sham eigenvalues and eigenvectors using ELSI and the ELPA eigensolver.
  Finished Cholesky decomposition
  | Time :     0.000 s
  Finished transformation to standard eigenproblem
  | Time :     0.000 s
  Starting LAPACK eigensolver
  Finished solving standard eigenproblem
  | Time :     0.002 s
  Finished back-transformation of eigenvectors
  | Time :     0.000 s

  Obtaining occupation numbers and chemical potential using ELSI.
  | Chemical potential (Fermi level):    -1.67466317eV
  Highest occupied state (VBM) at     -5.60139714 eV
  | Occupation number:      2.00000000

  Lowest unoccupied state (CBM) at    -1.13072220 eV
  | Occupation number:      0.00000000

  Overall HOMO-LUMO gap:      4.47067495 eV.

  Total energy components:
  | Sum of eigenvalues            :        -180.65622725 Ha       -4915.90606209 eV
  | XC energy correction          :         -42.63786410 Ha       -1160.23531425 eV
  | XC potential correction       :          54.81744154 Ha        1491.65847916 eV
  | Free-atom electrostatic energy:        -146.84974164 Ha       -3995.98478350 eV
  | Hartree energy correction     :          -8.17635062 Ha        -222.48982064 eV
  | vdW energy correction         :           0.00000000 Ha           0.00000000 eV
  | Entropy correction            :           0.00000000 Ha           0.00000000 eV
  | ---------------------------
  | Total energy                  :        -323.50274207 Ha       -8802.95750132 eV
  | Total energy, T -> 0          :        -323.50274207 Ha       -8802.95750132 eV  <-- do not rely on this value for anything but (periodic) metals
  | Electronic free energy        :        -323.50274207 Ha       -8802.95750132 eV

  Derived energy quantities:
  | Kinetic energy                :         322.60538099 Ha        8778.53906395 eV
  | Electrostatic energy          :        -603.47025897 Ha      -16421.26125103 eV
  | Energy correction for multipole
  | error in Hartree potential    :           0.04220526 Ha           1.14846343 eV
  | Sum of eigenvalues per atom                           :        -378.14662016 eV
  | Total energy (T->0) per atom                          :        -677.15057702 eV  <-- do not rely on this value for anything but (periodic) metals
  | Electronic free energy per atom                       :        -677.15057702 eV

  Self-consistency convergence accuracy:
  | Change of charge density      :  0.1047E-01
  | Change of sum of eigenvalues  : -0.1075E+01 eV
  | Change of total energy        :  0.1705E-02 eV

  End self-consistency iteration #     6       :  max(cpu_time)    wall_clock(cpu1)
  | Time for this iteration                    :        1.178 s           1.179 s
  | Charge density update                      :        0.382 s           0.382 s
  | Density mixing                             :        0.012 s           0.013 s
  | Hartree multipole update                   :        0.009 s           0.008 s
  | Hartree multipole summation                :        0.282 s           0.283 s
  | Integration                                :        0.490 s           0.490 s
  | Solution of K.-S. eqns.                    :        0.002 s           0.002 s
  | Total energy evaluation                    :        0.000 s           0.000 s

  Partial memory accounting:
  | Current value for overall tracked memory usage on task 0  :           0.166 MB
  | Peak value for overall tracked memory usage on task 0     :           0.696 MB after allocating gradient_basis_wave
  | Largest tracked array allocation on task 0 so far         :           0.397 MB  when allocating gradient_basis_wave
  Note:  These values currently only include a subset of arrays which are explicitly tracked.
  The "true" memory usage will be greater.
------------------------------------------------------------

------------------------------------------------------------
          Begin self-consistency iteration #    7

  Date     :  20200710, Time     :  144711.169
------------------------------------------------------------
  Evaluating new KS density.
  Integration grid: deviation in total charge (<rho> - N_e) =   2.131628E-14
  Pulay mixing of updated and previous charge densities.

  Evaluating partitioned Hartree potential by multipole expansion.
  | Analytical far-field extrapolation by fixed multipoles:
  | Hartree multipole sum: apparent total charge =  -0.530089E-03
  Summing up the Hartree potential.
  Time summed over all CPUs for potential: real work        0.282 s, elapsed        0.282 s
  | RMS charge density error from multipole expansion :   0.261263E-01

  Integrating Hamiltonian matrix: batch-based integration.
  Time summed over all CPUs for integration: real work        0.489 s, elapsed        0.489 s

  Updating Kohn-Sham eigenvalues and eigenvectors using ELSI and the ELPA eigensolver.
  Finished Cholesky decomposition
  | Time :     0.000 s
  Finished transformation to standard eigenproblem
  | Time :     0.000 s
  Starting LAPACK eigensolver
  Finished solving standard eigenproblem
  | Time :     0.001 s
  Finished back-transformation of eigenvectors
  | Time :     0.000 s

[...]
  |   Hirshfeld dipole moment :      0.06434469
  |   Hirshfeld second moments:      0.00479277      -0.01716383      -0.01579478
  |                                 -0.01716383      -0.00526050       0.00897255
  |                                 -0.01579478       0.00897255      -0.01908660
  ----------------------------------------------------------------------
  | Atom    12: O
  |   Hirshfeld charge        :     -0.13472458
  |   Free atom volume        :     23.61338643
  |   Hirshfeld volume        :     20.63954859
  |   Hirshfeld dipole vector :      0.01616370       0.00163161       0.03282675
  |   Hirshfeld dipole moment :      0.03662680
  |   Hirshfeld second moments:      0.05778603       0.00144807      -0.00801841
  |                                  0.00144807       0.10541117      -0.01473764
  |                                 -0.00801841      -0.01473764       0.03584899
  ----------------------------------------------------------------------
  | Atom    13: H
  |   Hirshfeld charge        :      0.17301600
  |   Free atom volume        :      9.95071624
  |   Hirshfeld volume        :      6.36960512
  |   Hirshfeld dipole vector :     -0.00236202      -0.10626977       0.04076855
  |   Hirshfeld dipole moment :      0.11384603
  |   Hirshfeld second moments:      0.11624031       0.00065309      -0.01408211
  |                                  0.00065309       0.12360474      -0.00015217
  |                                 -0.01408211      -0.00015217       0.08355987
  ----------------------------------------------------------------------


  Total energy components:
  | Sum of eigenvalues            :        -180.64718479 Ha       -4915.66000414 eV
  | XC energy correction          :         -42.63564768 Ha       -1160.17500240 eV
  | XC potential correction       :          54.81464755 Ha        1491.58245081 eV
  | Free-atom electrostatic energy:        -146.84974164 Ha       -3995.98478350 eV
  | Hartree energy correction     :          -8.18479558 Ha        -222.71961969 eV
  | vdW energy correction         :          -0.00316098 Ha          -0.08601471 eV
  | Entropy correction            :           0.00000000 Ha           0.00000000 eV
  | ---------------------------
  | Total energy                  :        -323.50588312 Ha       -8803.04297364 eV
  | Total energy, T -> 0          :        -323.50588312 Ha       -8803.04297364 eV  <-- do not rely on this value for anything but (periodic) metals
  | Electronic free energy        :        -323.50588312 Ha       -8803.04297364 eV

  Derived energy quantities:
  | Kinetic energy                :         322.56553011 Ha        8777.45466640 eV
  | Electrostatic energy          :        -603.43260457 Ha      -16420.23662292 eV
  | Energy correction for multipole
  | error in Hartree potential    :           0.04233412 Ha           1.15196992 eV
  | Sum of eigenvalues per atom                           :        -378.12769263 eV
  | Total energy (T->0) per atom                          :        -677.15715182 eV  <-- do not rely on this value for anything but (periodic) metals
  | Electronic free energy per atom                       :        -677.15715182 eV

  atomic forces [eV/Ang]:
  -----------------------
  atom #    1
   Hellmann-Feynman              : -0.892106E-01  0.710845E+00  0.875323E+00
   Ionic forces                  :  0.000000E+00  0.000000E+00  0.000000E+00
   Multipole                     :  0.160249E-01  0.420475E+00 -0.316874E+00
   Pulay + GGA                   : -0.883271E+00 -0.743122E+00 -0.116246E+01
   Van der Waals                 :  0.195606E-02  0.626329E-03 -0.152836E-02
   ----------------------------------------------------------------
   Total forces(   1)            : -0.954500E+00  0.388824E+00 -0.605539E+00
  atom #    2
   Hellmann-Feynman              :  0.301568E+00 -0.417690E-01  0.241909E-01
   Ionic forces                  :  0.000000E+00  0.000000E+00  0.000000E+00
   Multipole                     :  0.175742E+00  0.103262E-01 -0.352105E-01
   Pulay + GGA                   : -0.149637E+00 -0.422525E-02 -0.246707E-02
   Van der Waals                 :  0.566632E-02 -0.680394E-02 -0.480199E-02
   ----------------------------------------------------------------
   Total forces(   2)            :  0.333339E+00 -0.424720E-01 -0.182887E-01
  atom #    3
   Hellmann-Feynman              :  0.671109E+01 -0.820711E+01 -0.540960E+01
   Ionic forces                  :  0.000000E+00  0.000000E+00  0.000000E+00
   Multipole                     : -0.216020E+00  0.148617E+00 -0.980867E+00
   Pulay + GGA                   : -0.591865E+01  0.733193E+01  0.689974E+01
   Van der Waals                 :  0.305615E-02 -0.783501E-02 -0.632565E-02
   ----------------------------------------------------------------
   Total forces(   3)            :  0.579477E+00 -0.734399E+00  0.502947E+00
  atom #    4
   Hellmann-Feynman              : -0.217150E+00  0.246686E+00 -0.661618E-01
   Ionic forces                  :  0.000000E+00  0.000000E+00  0.000000E+00
   Multipole                     : -0.924476E-01 -0.129116E-01 -0.529419E-01
   Pulay + GGA                   :  0.243096E+00 -0.320163E-01 -0.543150E-01
   Van der Waals                 : -0.628467E-03 -0.251736E-02 -0.718674E-02
   ----------------------------------------------------------------
   Total forces(   4)            : -0.671296E-01  0.199241E+00 -0.180605E+00
  atom #    5
   Hellmann-Feynman              : -0.175153E+00  0.236367E+00  0.319072E-02
   Ionic forces                  :  0.000000E+00  0.000000E+00  0.000000E+00
   Multipole                     : -0.418953E-01  0.601801E-01 -0.704155E-01
   Pulay + GGA                   :  0.336199E-01 -0.228062E+00  0.211449E-01
   Van der Waals                 : -0.408935E-02 -0.521935E-02 -0.438246E-02
   ----------------------------------------------------------------
   Total forces(   5)            : -0.187517E+00  0.632661E-01 -0.504624E-01
  atom #    6
   Hellmann-Feynman              :  0.208886E+00 -0.101590E+01  0.746412E+00
   Ionic forces                  :  0.000000E+00  0.000000E+00  0.000000E+00
   Multipole                     : -0.115637E+00  0.631189E+00  0.202418E+00
   Pulay + GGA                   :  0.127149E+00 -0.730268E-01 -0.495814E+00
   Van der Waals                 : -0.664837E-03  0.108888E-01  0.680775E-02
   ----------------------------------------------------------------
   Total forces(   6)            :  0.219733E+00 -0.446848E+00  0.459824E+00
  atom #    7
   Hellmann-Feynman              : -0.218616E+00 -0.469259E-01 -0.415887E-01
   Ionic forces                  :  0.000000E+00  0.000000E+00  0.000000E+00
   Multipole                     : -0.119371E+00  0.486292E-01  0.304926E-01
   Pulay + GGA                   :  0.111814E+00  0.517134E-02  0.432707E-02
   Van der Waals                 : -0.220586E-02  0.477096E-02  0.698796E-02
   ----------------------------------------------------------------
   Total forces(   7)            : -0.228379E+00  0.116456E-01  0.218894E-03
  atom #    8
   Hellmann-Feynman              :  0.750123E-01  0.721239E-01  0.245244E+00
   Ionic forces                  :  0.000000E+00  0.000000E+00  0.000000E+00
   Multipole                     :  0.156140E-01  0.619545E-01  0.123376E+00
   Pulay + GGA                   : -0.453898E-01 -0.389433E-01 -0.102232E+00
   Van der Waals                 : -0.290739E-02  0.113482E-01  0.559588E-03
   ----------------------------------------------------------------
   Total forces(   8)            :  0.423290E-01  0.106483E+00  0.266948E+00
  atom #    9
   Hellmann-Feynman              :  0.126839E+00  0.361938E-01 -0.201937E+00
   Ionic forces                  :  0.000000E+00  0.000000E+00  0.000000E+00
   Multipole                     :  0.199334E-01  0.133090E+00 -0.555994E-02
   Pulay + GGA                   : -0.399393E-01 -0.696437E-01  0.811899E-01
   Van der Waals                 : -0.239441E-02  0.556357E-02  0.769900E-02
   ----------------------------------------------------------------
   Total forces(   9)            :  0.104439E+00  0.105203E+00 -0.118608E+00
  atom #   10
   Hellmann-Feynman              :  0.251717E+01  0.527066E+01  0.263686E+00
   Ionic forces                  :  0.000000E+00  0.000000E+00  0.000000E+00
   Multipole                     : -0.765657E-01 -0.205560E+00  0.280902E+00
   Pulay + GGA                   : -0.149343E+01 -0.283886E+01 -0.230680E+00
   Van der Waals                 :  0.421212E-02 -0.110322E-01 -0.106900E-02
   ----------------------------------------------------------------
   Total forces(  10)            :  0.951394E+00  0.221520E+01  0.312839E+00
  atom #   11
   Hellmann-Feynman              :  0.413797E+01 -0.245405E+01  0.142833E+02
   Ionic forces                  :  0.000000E+00  0.000000E+00  0.000000E+00
   Multipole                     :  0.128583E+00 -0.523754E+00  0.810187E+00
   Pulay + GGA                   : -0.323238E+01  0.337928E+01 -0.135535E+02
   Van der Waals                 : -0.376769E-02 -0.116759E-01  0.171489E-02
   ----------------------------------------------------------------
   Total forces(  11)            :  0.103040E+01  0.389797E+00  0.154173E+01
  atom #   12
   Hellmann-Feynman              : -0.696393E+01  0.144520E+01 -0.146402E+02
   Ionic forces                  :  0.000000E+00  0.000000E+00  0.000000E+00
   Multipole                     : -0.941176E+00 -0.978203E+00 -0.785085E+00
   Pulay + GGA                   :  0.673510E+01 -0.193491E+01  0.131933E+02
   Van der Waals                 :  0.105815E-02  0.532189E-02  0.502012E-02
   ----------------------------------------------------------------
   Total forces(  12)            : -0.116895E+01 -0.146259E+01 -0.222693E+01
  atom #   13
   Hellmann-Feynman              : -0.667296E+00 -0.104219E+01  0.231167E+00
   Ionic forces                  :  0.000000E+00  0.000000E+00  0.000000E+00
   Multipole                     :  0.195220E-01 -0.561144E-01  0.823533E-01
   Pulay + GGA                   : -0.870527E-02  0.295125E+00 -0.194509E+00
   Van der Waals                 :  0.709208E-03  0.656410E-02 -0.349510E-02
   ----------------------------------------------------------------
   Total forces(  13)            : -0.655770E+00 -0.796618E+00  0.115517E+00

  Timings for VdW correction (Tkatchenko-Scheffler 2009 or later):
  | CPU time:        0.089 s, Wall clock time:        0.090 s.
  Removing unitary transformations (pure translations, rotations) from forces on atoms.
  Atomic forces before filtering:
  | Net force on center of mass :  -0.113111E-02 -0.326732E-02 -0.402581E-03 eV/A
  | Net torque on center of mass:  -0.713695E-02  0.315909E-02 -0.208069E-02 eV
  Atomic forces after filtering:
  | Net force on center of mass :   0.267609E-15 -0.267609E-15 -0.334511E-15 eV/A
  | Net torque on center of mass:  -0.424838E-15 -0.342231E-15 -0.377634E-15 eV

  Energy and forces in a compact form:
  | Total energy uncorrected      :         -0.880304297363616E+04 eV
  | Total energy corrected        :         -0.880304297363616E+04 eV  <-- do not rely on this value for anything but (periodic) metals
  | Electronic free energy        :         -0.880304297363616E+04 eV
  Total atomic forces (unitary forces cleaned) [eV/Ang]:
  |   1         -0.954397785044157E+00          0.389140784766553E+00         -0.605426469080001E+00
  |   2          0.333441595289593E+00         -0.420690912562988E-01         -0.180245883089571E-01
  |   3          0.579775300263367E+00         -0.733893597279954E+00          0.502993406463988E+00
  |   4         -0.668045395628499E-01          0.199671895290057E+00         -0.180743765361420E+00
  |   5         -0.187243146081080E+00          0.638366101622031E-01         -0.502539869583601E-01
  |   6          0.219634493005172E+00         -0.446688113501374E+00          0.460070947539565E+00
  |   7         -0.228481253398430E+00          0.117162741707729E-01          0.319385647308612E-03
  |   8          0.420871334029916E-01          0.106505865966865E+00          0.267246830422823E+00
  |   9          0.104338997967308E+00          0.105473162147099E+00         -0.118165653744266E+00
  |  10          0.951496070638265E+00          0.221536910609229E+01          0.312689926818657E+00
  |  11          0.103037049147764E+01          0.389802031811323E+00          0.154158110005612E+01
  |  12         -0.116868828085270E+01         -0.146237664172842E+01         -0.222730980372108E+01
  |  13         -0.655529077105126E+00         -0.796488286641112E+00          0.115022670225614E+00

  ------------------------------------ 
  Start decomposition of the XC Energy 
  ------------------------------------ 
  X and C from original XC functional choice 
  Hartree-Fock Energy :          0.000000000 Ha              0.000000000 eV
  X Energy            :        -41.035630995 Ha          -1116.636333214 eV
  C Energy            :         -1.600016684 Ha            -43.538669186 eV
  Total XC Energy     :        -42.635647679 Ha          -1160.175002400 eV
  ------------------------------------ 
  LDA X and C from self-consistent density 
  X Energy LDA        :        -37.254181748 Ha          -1013.737863787 eV
  C Energy LDA        :         -3.138363207 Ha            -85.399207932 eV
  ------------------------------------ 
  End decomposition of the XC Energy 
  ------------------------------------ 

------------------------------------------------------------

------------------------------------------------------------------------------
  Final output of selected total energy values:

  The following output summarizes some interesting total energy values
  at the end of a run (AFTER all relaxation, molecular dynamics, etc.).

  | Total energy of the DFT / Hartree-Fock s.c.f. calculation      :          -8803.042973636 eV
  | Final zero-broadening corrected energy (caution - metals only) :          -8803.042973636 eV
  | For reference only, the value of 1 Hartree used in FHI-aims is :             27.211384500 eV

  Before relying on these values, please be sure to understand exactly which
  total energy value is referred to by a given number. Different objects may
  all carry the same name 'total energy'. Definitions:

  Total energy of the DFT / Hartree-Fock s.c.f. calculation:
  | Note that this energy does not include ANY quantities calculated after the
  | s.c.f. cycle, in particular not ANY RPA, MP2, etc. many-body perturbation terms.

  Final zero-broadening corrected energy:
  | For metallic systems only, a broadening of the occupation numbers at the Fermi
  | level can be extrapolated back to zero broadening by an electron-gas inspired
  | formula. For all systems that are not real metals, this value can be
  | meaningless and should be avoided.

------------------------------------------------------------------------------
  Methods described in the following list of references were used in this FHI-aims run.
  If you publish the results, please make sure to cite these reference if they apply.
  FHI-aims is an academic code, and for our developers (often, Ph.D. students
  and postdocs), scientific credit in the community is essential.
  Thank you for helping us!

  For any use of FHI-aims, please cite:

    Volker Blum, Ralf Gehrke, Felix Hanke, Paula Havu, Ville Havu,
    Xinguo Ren, Karsten Reuter, and Matthias Scheffler
    'Ab initio molecular simulations with numeric atom-centered orbitals'
    Computer Physics Communications 180, 2175-2196 (2009)
    http://dx.doi.org/10.1016/j.cpc.2009.06.022


  The scalable eigensolver library ELPA was used in your run.
  ELPA is essential especially for large systems on hundreds or thousands of CPUs.
  For ELPA, please cite:

    Andreas Marek, Volker Blum, Rainer Johanni, Ville Havu, Bruno Lang,
    Thomas Auckenthaler, Alexander Heinecke, Hans-Joachim Bungartz, and Hermann Lederer,
    'The ELPA Library - Scalable Parallel Eigenvalue Solutions
    for Electronic Structure Theory and Computational Science'
    The Journal of Physics: Condensed Matter 26, 213201 (2014).
    http://dx.doi.org/10.1088/0953-8984/26/21/213201


  The ELSI infrastructure was used in your run to solve the Kohn-Sham electronic structure.
  Please check out http://elsi-interchange.org to learn more.
  If scalability is important for your project, please acknowledge ELSI by citing:

    V. W-z. Yu, F. Corsetti, A. Garcia, W. P. Huhn, M. Jacquelin, W. Jia,
    B. Lange, L. Lin, J. Lu, W. Mi, A. Seifitokaldani, A. Vazquez-Mayagoitia,
    C. Yang, H. Yang, and V. Blum
    'ELSI: A unified software interface for Kohn-Sham electronic structure solvers'
    Computer Physics Communications 222, 267-285 (2018).
    http://dx.doi.org/10.1016/j.cpc.2017.09.007


  For the real-space grid partitioning and parallelization used in this calculation, please cite:

    Ville Havu, Volker Blum, Paula Havu, and Matthias Scheffler,
    'Efficient O(N) integration for all-electron electronic structure calculation'
    'using numerically tabulated basis functions'
    Journal of Computational Physics 228, 8367-8379 (2009).
    http://dx.doi.org/10.1016/j.jcp.2009.08.008

  Of course, there are many other important community references, e.g., those cited in the
  above references. Our list is limited to references that describe implementations in the
  FHI-aims code. The reason is purely practical (length of this list) - please credit others as well.

------------------------------------------------------------
          Leaving FHI-aims.
          Date     :  20200710, Time     :  144724.185

          Computational steps:
          | Number of self-consistency cycles          :           15
          | Number of SCF (re)initializations          :            1

          Detailed time accounting                     :  max(cpu_time)    wall_clock(cpu1)
          | Total time                                 :       21.340 s          21.406 s
          | Preparation time                           :        0.148 s           0.150 s
          | Boundary condition initalization           :        0.000 s           0.000 s
          | Grid partitioning                          :        0.112 s           0.113 s
          | Preloading free-atom quantities on grid    :        0.002 s           0.002 s
          | Free-atom superposition energy             :        0.084 s           0.085 s
          | Total time for integrations                :        8.058 s           8.082 s
          | Total time for solution of K.-S. equations :        0.035 s           0.037 s
          | Total time for density & force components  :        6.685 s           6.697 s
          | Total time for mixing                      :        0.199 s           0.200 s
          | Total time for Hartree multipole update    :        0.132 s           0.134 s
          | Total time for Hartree multipole sum       :        5.484 s           5.490 s
          | Total time for total energy evaluation     :        0.002 s           0.001 s
          | Total time for vdW correction              :        0.089 s           0.090 s

          Partial memory accounting:
          | Residual value for overall tracked memory usage across tasks :           0.000 MB (should be 0.000 MB)
          | Peak values for overall tracked memory usage (after allocating hessian_basis_wave):
          |   Minimum:        1.622 MB (on task 1)
          |   Maximum:        1.622 MB (on task 1)
          |   Average:        1.622 MB
          | Largest tracked array allocation (hessian_basis_wave):
          |   Minimum:        0.794 MB (on task 1)
          |   Maximum:        0.794 MB (on task 1)
          |   Average:        0.794 MB
          Note:  These values currently only include a subset of arrays which are explicitly tracked.
          The "true" memory usage will be greater.

          Have a nice day.
------------------------------------------------------------
