  MPI-parallelism will be employed.
------------------------------------------------------------
          Invoking FHI-aims ...
          Version 171221_1
          Compiled on 2019/09/09 at 14:39:39 on host puhti-login2.bullx.

          When using FHI-aims, please cite the following reference:

          Volker Blum, Ralf Gehrke, Felix Hanke, Paula Havu,
          Ville Havu, Xinguo Ren, Karsten Reuter, and Matthias Scheffler,
          'Ab Initio Molecular Simulations with Numeric Atom-Centered Orbitals',
          Computer Physics Communications 180, 2175-2196 (2009)

          For any questions about FHI-aims, please visit the aimsclub website
          with its forums and wiki. Contributions to both the forums and the
          wiki are warmly encouraged - they are for you, and everyone is welcome there.

------------------------------------------------------------



  Date     :  20200601, Time     :  001119.198
  Time zero on CPU 1             :   0.268450000000000E-01  s.
  Internal wall clock time zero  :           360202279.198  s.

  FHI-aims created a unique identifier for this run for later identification
  aims_uuid : B58D2C78-75DC-4224-AB8E-F23E7CC6D2E4

  Using       20 parallel tasks.
  Task        0 on host r01c21.bullx reporting.
  Task        1 on host r01c21.bullx reporting.
  Task        2 on host r01c21.bullx reporting.
  Task        3 on host r01c21.bullx reporting.
  Task        4 on host r01c21.bullx reporting.
  Task        5 on host r01c21.bullx reporting.
  Task        6 on host r01c21.bullx reporting.
  Task        7 on host r01c21.bullx reporting.
  Task        8 on host r01c21.bullx reporting.
  Task        9 on host r01c21.bullx reporting.
  Task       10 on host r01c21.bullx reporting.
  Task       11 on host r01c21.bullx reporting.
  Task       12 on host r01c21.bullx reporting.
  Task       13 on host r01c21.bullx reporting.
  Task       14 on host r01c21.bullx reporting.
  Task       15 on host r01c21.bullx reporting.
  Task       16 on host r01c21.bullx reporting.
  Task       17 on host r01c21.bullx reporting.
  Task       18 on host r01c21.bullx reporting.
  Task       19 on host r01c21.bullx reporting.

  Performing system and environment tests:
  | Environment variable OMP_NUM_THREADS correctly set to 1.
  | Stacksize not measured: no C compiler
  | Checking for scalapack...
  | Testing pdtran()...
  | All pdtran() tests passed.

  Obtaining array dimensions for all initial allocations:
  
  -----------------------------------------------------------------------
  Parsing control.in (first pass over file, find array dimensions only).
  The contents of control.in will be repeated verbatim below
  unless switched off by setting 'verbatim_writeout .false.' .
  in the first line of control.in .
  -----------------------------------------------------------------------
  
  #########################################################################################
  #
  #  Volker Blum, FHI 2009 : Test run input file control.in for simple H2O
  #
  #########################################################################################
  #
  #  Physical model
  #
    xc                 pbe
    vdw_correction_hirshfeld
    spin               none
    relativistic       none
    charge             0.
  #
  #  SCF convergence
  #
    occupation_type    gaussian 0.01
    mixer              pulay
      n_max_pulay        10
      charge_mix_param   0.2
    sc_accuracy_rho    1E-5
    sc_accuracy_eev    1E-3
    sc_accuracy_etot   1E-6
    sc_accuracy_forces 1E-4
    sc_iter_limit      100
  #
  #  Relaxation
  #
  #  relax_geometry   bfgs 1.e-3
  #
  ################################################################################
  #
  #  FHI-aims code project
  #  VB, Fritz-Haber Institut, 2009
  #
  #  Suggested "light" defaults for H atom (to be pasted into control.in file)
  #  Be sure to double-check any results obtained with these settings for post-processing,
  #  e.g., with the "tight" defaults and larger basis sets.
  #
  ################################################################################
    species        H
  #     global species definitions
      nucleus             1
      mass                1.00794
  #
      l_hartree           4
  #
      cut_pot             3.5  1.5  1.0
      basis_dep_cutoff    1e-4
  #
      radial_base         24 5.0
      radial_multiplier   1
      angular_grids       specified
        division   0.2421   50
        division   0.3822  110
        division   0.4799  194
        division   0.5341  302
  #      division   0.5626  434
  #      division   0.5922  590
  #      division   0.6542  770
  #      division   0.6868 1202
  #      outer_grid  770
        outer_grid  302
  ################################################################################
  #
  #  Definition of "minimal" basis
  #
  ################################################################################
  #     valence basis states
      valence      1  s   1.
  #     ion occupancy
      ion_occ      1  s   0.5
  ################################################################################
  #
  #  Suggested additional basis functions. For production calculations,
  #  uncomment them one after another (the most important basis functions are
  #  listed first).
  #
  #  Basis constructed for dimers: 0.5 A, 0.7 A, 1.0 A, 1.5 A, 2.5 A
  #
  ################################################################################
  #  "First tier" - improvements: -1014.90 meV to -62.69 meV
       hydro 2 s 2.1
       hydro 2 p 3.5
  #  "Second tier" - improvements: -12.89 meV to -1.83 meV
  #     hydro 1 s 0.85
  #     hydro 2 p 3.7
  #     hydro 2 s 1.2
  #     hydro 3 d 7
  #  "Third tier" - improvements: -0.25 meV to -0.12 meV
  #     hydro 4 f 11.2
  #     hydro 3 p 4.8
  #     hydro 4 d 9
  #     hydro 3 s 3.2
  ################################################################################
  #
  #  FHI-aims code project
  #  VB, Fritz-Haber Institut, 2009
  #
  #  Suggested "light" defaults for C atom (to be pasted into control.in file)
  #  Be sure to double-check any results obtained with these settings for post-processing,
  #  e.g., with the "tight" defaults and larger basis sets.
  #
  ################################################################################
    species        C
  #     global species definitions
      nucleus             6
      mass                12.0107
  #
      l_hartree           4
  #
      cut_pot             3.5  1.5  1.0
      basis_dep_cutoff    1e-4
  #
      radial_base         34 5.0
      radial_multiplier   1
      angular_grids specified
        division   0.3326   50
        division   0.5710  110
        division   0.7727  194
        division   0.8772  302
  #      division   0.9334  434
  #      division   0.9625  590
  #      division   0.9924  770
  #      division   1.0230  974
  #      division   1.4589 1202
  #     outer_grid  974
       outer_grid 302
  ################################################################################
  #
  #  Definition of "minimal" basis
  #
  ################################################################################
  #     valence basis states
      valence      2  s   2.
      valence      2  p   2.
  #     ion occupancy
      ion_occ      2  s   1.
      ion_occ      2  p   1.
  ################################################################################
  #
  #  Suggested additional basis functions. For production calculations,
  #  uncomment them one after another (the most important basis functions are
  #  listed first).
  #
  #  Constructed for dimers: 1.0 A, 1.25 A, 1.5 A, 2.0 A, 3.0 A
  #
  ################################################################################
  #  "First tier" - improvements: -1214.57 meV to -155.61 meV
       hydro 2 p 1.7
       hydro 3 d 6
       hydro 2 s 4.9
  #  "Second tier" - improvements: -67.75 meV to -5.23 meV
  #     hydro 4 f 9.8
  #     hydro 3 p 5.2
  #     hydro 3 s 4.3
  #     hydro 5 g 14.4
  #     hydro 3 d 6.2
  #  "Third tier" - improvements: -2.43 meV to -0.60 meV
  #     hydro 2 p 5.6
  #     hydro 2 s 1.4
  #     hydro 3 d 4.9
  #     hydro 4 f 11.2
  #  "Fourth tier" - improvements: -0.39 meV to -0.18 meV
  #     hydro 2 p 2.1
  #     hydro 5 g 16.4
  #     hydro 4 d 13.2
  #     hydro 3 s 13.6
  #     hydro 4 f 17.6
  #  Further basis functions - improvements: -0.08 meV and below
  #     hydro 3 s 2
  #     hydro 3 p 6
  #     hydro 4 d 20
  ################################################################################
  #
  #  FHI-aims code project
  #  VB, Fritz-Haber Institut, 2009
  #
  #  Suggested "light" defaults for N atom (to be pasted into control.in file)
  #  Be sure to double-check any results obtained with these settings for post-processing,
  #  e.g., with the "tight" defaults and larger basis sets.
  #
  ################################################################################
    species        N
  #     global species definitions
      nucleus             7
      mass                14.0067
  #
      l_hartree           4
  #
      cut_pot             3.5  1.5  1.0
      basis_dep_cutoff    1e-4
  #
      radial_base         35 5.0
      radial_multiplier   1
      angular_grids       specified
        division   0.2599   50
        division   0.4601  110
        division   0.5885  194
        division   0.6503  302
  #      division   0.6939  434
  #      division   0.7396  590
  #      division   0.7632  770
  #      division   0.8122  974
  #      division   1.1604 1202
  #      outer_grid  974
        outer_grid  302
  ################################################################################
  #
  #  Definition of "minimal" basis
  #
  ################################################################################
  #     valence basis states
      valence      2  s   2.
      valence      2  p   3.
  #     ion occupancy
      ion_occ      2  s   1.
      ion_occ      2  p   2.
  ################################################################################
  #
  #  Suggested additional basis functions. For production calculations,
  #  uncomment them one after another (the most important basis functions are
  #  listed first).
  #
  #  Constructed for dimers: 1.0 A, 1.1 A, 1.5 A, 2.0 A, 3.0 A
  #
  ################################################################################
  #  "First tier" - improvements: -1193.42 meV to -220.60 meV
       hydro 2 p 1.8
       hydro 3 d 6.8
       hydro 3 s 5.8
  #  "Second tier" - improvements: -80.21 meV to -6.86 meV
  #     hydro 4 f 10.8
  #     hydro 3 p 5.8
  #     hydro 1 s 0.8
  #     hydro 5 g 16
  #     hydro 3 d 4.9
  #  "Third tier" - improvements: -4.29 meV to -0.53 meV
  #     hydro 3 s 16
  #     ionic 2 p auto
  #     hydro 3 d 6.6
  #     hydro 4 f 11.6
  #  "Fourth tier" - improvements: -0.75 meV to -0.25 meV
  #     hydro 2 p 4.5
  #     hydro 2 s 2.4
  #     hydro 5 g 14.4
  #     hydro 4 d 14.4
  #     hydro 4 f 16.8
  # Further basis functions - -0.21 meV and below
  #     hydro 3 p 14.8
  #     hydro 3 s 4.4
  #     hydro 3 d 19.6
  #     hydro 5 g 12.8
  ################################################################################
  #
  #  FHI-aims code project
  #  VB, Fritz-Haber Institut, 2009
  #
  #  Suggested "light" defaults for O atom (to be pasted into control.in file)
  #  Be sure to double-check any results obtained with these settings for post-processing,
  #  e.g., with the "tight" defaults and larger basis sets.
  #
  ################################################################################
    species        O
  #     global species definitions
      nucleus             8
      mass                15.9994
  #
      l_hartree           4
  #
      cut_pot             3.5  1.5  1.0
      basis_dep_cutoff    1e-4
  #
      radial_base         36 5.0
      radial_multiplier   1
       angular_grids specified
        division   0.2659   50
        division   0.4451  110
        division   0.6052  194
        division   0.7543  302
  #      division   0.8014  434
  #      division   0.8507  590
  #      division   0.8762  770
  #      division   0.9023  974
  #      division   1.2339 1202
  #      outer_grid 974
        outer_grid 302
  ################################################################################
  #
  #  Definition of "minimal" basis
  #
  ################################################################################
  #     valence basis states
      valence      2  s   2.
      valence      2  p   4.
  #     ion occupancy
      ion_occ      2  s   1.
      ion_occ      2  p   3.
  ################################################################################
  #
  #  Suggested additional basis functions. For production calculations,
  #  uncomment them one after another (the most important basis functions are
  #  listed first).
  #
  #  Constructed for dimers: 1.0 A, 1.208 A, 1.5 A, 2.0 A, 3.0 A
  #
  ################################################################################
  #  "First tier" - improvements: -699.05 meV to -159.38 meV
       hydro 2 p 1.8
       hydro 3 d 7.6
       hydro 3 s 6.4
  #  "Second tier" - improvements: -49.91 meV to -5.39 meV
  #     hydro 4 f 11.6
  #     hydro 3 p 6.2
  #     hydro 3 d 5.6
  #     hydro 5 g 17.6
  #     hydro 1 s 0.75
  #  "Third tier" - improvements: -2.83 meV to -0.50 meV
  #     ionic 2 p auto
  #     hydro 4 f 10.8
  #     hydro 4 d 4.7
  #     hydro 2 s 6.8
  #  "Fourth tier" - improvements: -0.40 meV to -0.12 meV
  #     hydro 3 p 5
  #     hydro 3 s 3.3
  #     hydro 5 g 15.6
  #     hydro 4 f 17.6
  #     hydro 4 d 14
  # Further basis functions - -0.08 meV and below
  #     hydro 3 s 2.1
  #     hydro 4 d 11.6
  #     hydro 3 p 16
  #     hydro 2 s 17.2
  
  -----------------------------------------------------------------------
  Completed first pass over input file control.in .
  -----------------------------------------------------------------------
  
  
  -----------------------------------------------------------------------
  Parsing geometry.in (first pass over file, find array dimensions only).
  The contents of geometry.in will be repeated verbatim below
  unless switched off by setting 'verbatim_writeout .false.' .
  in the first line of geometry.in .
  -----------------------------------------------------------------------
  
  atom  0.00000 0.00000 0.00000 C
  atom  1.09300 0.00000 0.00000 H
  atom  -0.47961 0.00000 -1.41207 N
  atom  -0.02271 -0.76319 -1.91269 H
  atom  -1.48890 -0.13211 -1.41447 H
  atom  -0.49584 1.26211 0.72868 C
  atom  -0.23077 2.15817 0.16267 H
  atom  -1.58184 1.23384 0.84429 H
  atom  -0.04342 1.33229 1.72062 H
  atom  -0.39425 -1.28861 0.74398 C
  atom  -1.04291 -2.19902 0.28610 O
  atom  0.01704 -1.38305 1.96819 O
  atom  -0.38816 -2.23881 2.18833 H
  
  -----------------------------------------------------------------------
  Completed first pass over input file geometry.in .
  -----------------------------------------------------------------------
  

  Basic array size parameters:
  | Number of species                 :        4
  | Number of atoms                   :       13
  | Max. basis fn. angular momentum   :        2
  | Max. atomic/ionic basis occupied n:        2
  | Max. number of basis fn. types    :        2
  | Max. radial fns per species/type  :        3
  | Max. logarithmic grid size        :     1301
  | Max. radial integration grid size :       36
  | Max. angular integration grid size:      302
  | Max. angular grid division number :        8
  | Radial grid for Hartree potential :     1301
  | Number of spin channels           :        1

------------------------------------------------------------
          Reading file control.in.
------------------------------------------------------------
  XC: Using PBE gradient-corrected functionals.
  Spin treatment: No spin polarisation.
  Non-relativistic treatment of kinetic energy.
  Charge =   0.000000E+00: Neutral system requested explicitly.
  Occupation type: Gaussian broadening, width =   0.100000E-01 eV.
  Using pulay charge density mixing.
  Pulay mixing - number of memorized iterations:   10
  Charge density mixing - mixing parameter:     0.2000
  Convergence accuracy of self-consistent charge density:  0.1000E-04
  Convergence accuracy of sum of eigenvalues:  0.1000E-02
  Convergence accuracy of total energy:  0.1000E-05
  Convergence accuracy of forces:  0.1000E-03
  Maximum number of s.-c. iterations  :   100
 
  Reading configuration options for species H                   .
  | Found nuclear charge :   1.0000
  | Found atomic mass :    1.00794000000000      amu
  | Found l_max for Hartree potential  :   4
  | Found cutoff potl. onset [A], width [A], scale factor :    3.50000    1.50000    1.00000
  | Threshold for basis-dependent cutoff potential is   0.100000E-03
  | Found data for basic radial integration grid :    24 points, outermost radius =    5.000 A
  | Found multiplier for basic radial grid :   1
  | Found angular grid specification: user-specified.
  | Specified grid contains     5 separate shells.
  | Check grid settings after all constraints further below.
  | Found free-atom valence shell :  1 s   1.000
  | No ionic wave fns used. Skipping ion_occ.
  | Found hydrogenic basis function :  2 s   2.100
  | Found hydrogenic basis function :  2 p   3.500
  Species H                   : Missing cutoff potential type.
  Defaulting to exp(1/x)/(1-x)^2 type cutoff potential.
  Species H : No 'logarithmic' tag. Using default grid for free atom:
  | Default logarithmic grid data [bohr] : 0.1000E-03 0.1000E+03 0.1012E+01
  Species H : On-site basis accuracy parameter (for Gram-Schmidt orthonormalisation) not specified.
  Using default value basis_acc =  0.1000000E-03.
  Species H                   : Using default innermost maximum threshold i_radial=  2 for radial functions.
  Species H                   : Default cutoff onset for free atom density etc. : 0.35000000E+01 AA.
  Species H                   : Basic radial grid will be enhanced according to radial_multiplier =   1, to contain    24 grid points.
 
  Reading configuration options for species C                   .
  | Found nuclear charge :   6.0000
  | Found atomic mass :    12.0107000000000      amu
  | Found l_max for Hartree potential  :   4
  | Found cutoff potl. onset [A], width [A], scale factor :    3.50000    1.50000    1.00000
  | Threshold for basis-dependent cutoff potential is   0.100000E-03
  | Found data for basic radial integration grid :    34 points, outermost radius =    5.000 A
  | Found multiplier for basic radial grid :   1
  | Found angular grid specification: user-specified.
  | Specified grid contains     5 separate shells.
  | Check grid settings after all constraints further below.
  | Found free-atom valence shell :  2 s   2.000
  | Found free-atom valence shell :  2 p   2.000
  | No ionic wave fns used. Skipping ion_occ.
  | No ionic wave fns used. Skipping ion_occ.
  | Found hydrogenic basis function :  2 p   1.700
  | Found hydrogenic basis function :  3 d   6.000
  | Found hydrogenic basis function :  2 s   4.900
  Species C                   : Missing cutoff potential type.
  Defaulting to exp(1/x)/(1-x)^2 type cutoff potential.
  Species C : No 'logarithmic' tag. Using default grid for free atom:
  | Default logarithmic grid data [bohr] : 0.1000E-03 0.1000E+03 0.1012E+01
  Species C : On-site basis accuracy parameter (for Gram-Schmidt orthonormalisation) not specified.
  Using default value basis_acc =  0.1000000E-03.
  Species C                   : Using default innermost maximum threshold i_radial=  2 for radial functions.
  Species C                   : Default cutoff onset for free atom density etc. : 0.35000000E+01 AA.
  Species C                   : Basic radial grid will be enhanced according to radial_multiplier =   1, to contain    34 grid points.
 
  Reading configuration options for species N                   .
  | Found nuclear charge :   7.0000
  | Found atomic mass :    14.0067000000000      amu
  | Found l_max for Hartree potential  :   4
  | Found cutoff potl. onset [A], width [A], scale factor :    3.50000    1.50000    1.00000
  | Threshold for basis-dependent cutoff potential is   0.100000E-03
  | Found data for basic radial integration grid :    35 points, outermost radius =    5.000 A
  | Found multiplier for basic radial grid :   1
  | Found angular grid specification: user-specified.
  | Specified grid contains     5 separate shells.
  | Check grid settings after all constraints further below.
  | Found free-atom valence shell :  2 s   2.000
  | Found free-atom valence shell :  2 p   3.000
  | No ionic wave fns used. Skipping ion_occ.
  | No ionic wave fns used. Skipping ion_occ.
  | Found hydrogenic basis function :  2 p   1.800
  | Found hydrogenic basis function :  3 d   6.800
  | Found hydrogenic basis function :  3 s   5.800
  Species N                   : Missing cutoff potential type.
  Defaulting to exp(1/x)/(1-x)^2 type cutoff potential.
  Species N : No 'logarithmic' tag. Using default grid for free atom:
  | Default logarithmic grid data [bohr] : 0.1000E-03 0.1000E+03 0.1012E+01
  Species N : On-site basis accuracy parameter (for Gram-Schmidt orthonormalisation) not specified.
  Using default value basis_acc =  0.1000000E-03.
  Species N                   : Using default innermost maximum threshold i_radial=  2 for radial functions.
  Species N                   : Default cutoff onset for free atom density etc. : 0.35000000E+01 AA.
  Species N                   : Basic radial grid will be enhanced according to radial_multiplier =   1, to contain    35 grid points.
 
  Reading configuration options for species O                   .
  | Found nuclear charge :   8.0000
  | Found atomic mass :    15.9994000000000      amu
  | Found l_max for Hartree potential  :   4
  | Found cutoff potl. onset [A], width [A], scale factor :    3.50000    1.50000    1.00000
  | Threshold for basis-dependent cutoff potential is   0.100000E-03
  | Found data for basic radial integration grid :    36 points, outermost radius =    5.000 A
  | Found multiplier for basic radial grid :   1
  | Found angular grid specification: user-specified.
  | Specified grid contains     5 separate shells.
  | Check grid settings after all constraints further below.
  | Found free-atom valence shell :  2 s   2.000
  | Found free-atom valence shell :  2 p   4.000
  | No ionic wave fns used. Skipping ion_occ.
  | No ionic wave fns used. Skipping ion_occ.
  | Found hydrogenic basis function :  2 p   1.800
  | Found hydrogenic basis function :  3 d   7.600
  | Found hydrogenic basis function :  3 s   6.400
  Species O                   : Missing cutoff potential type.
  Defaulting to exp(1/x)/(1-x)^2 type cutoff potential.
  Species O : No 'logarithmic' tag. Using default grid for free atom:
  | Default logarithmic grid data [bohr] : 0.1000E-03 0.1000E+03 0.1012E+01
  Species O : On-site basis accuracy parameter (for Gram-Schmidt orthonormalisation) not specified.
  Using default value basis_acc =  0.1000000E-03.
  Species O                   : Using default innermost maximum threshold i_radial=  2 for radial functions.
  Species O                   : Default cutoff onset for free atom density etc. : 0.35000000E+01 AA.
  Species O                   : Basic radial grid will be enhanced according to radial_multiplier =   1, to contain    36 grid points.
 
  Finished reading input file 'control.in'. Consistency checks are next.
 
  MPI_IN_PLACE appears to work with this MPI implementation.
  | Keeping use_mpi_in_place .true. (see manual).
  Target number of points in a grid batch is not set. Defaulting to  100
  Method for grid partitioning is not set. Defaulting to parallel hash+maxmin partitioning.
  Batch size limit is not set. Defaulting to    200
  By default, will store active basis functions for each batch.
  If in need of memory, prune_basis_once .false. can be used to disable this option.
  communication_type for Hartree potential was not specified.
  Defaulting to calc_hartree .
  Pulay mixer: Number of initial linear mixing iterations not set.
  Defaulting to    0 iterations.
  Work space size for distributed Hartree potential not set.
  Defaulting to   0.200000E+03 MB.
  Algorithm-dependent basis array size parameters:
  | n_max_pulay                         :       10
  Presetting      1001 iterations before the initial mixing cycle
  is restarted anyway using the sc_init_iter criterion / keyword.
  Presetting a factor      1.000 between actual scf density residual
  and density convergence criterion sc_accuracy_rho below which sc_init_iter
  takes no effect.
  Geometry relaxation not requested: no relaxation will be performed.
  Handling of forces: Unphysical translation and rotation will be removed from forces.
  No accuracy limit for integral partition fn. given. Defaulting to  0.1000E-14.
  No threshold value for u(r) in integrations given. Defaulting to  0.1000E-05.
  No accuracy for occupation numbers given. Defaulting to  0.1000E-12.
  No threshold value for occupation numbers given. Defaulting to  0.0000E+00.
  No accuracy for fermi level given. Defaulting to  0.1000E-19.
  Maximum # of iterations to find E_F not set. Defaulting to  200.
  Preferred method for the eigenvalue solver ('KS_method') not specified in 'control.in'.
  Calling BLACS routine to test compilation state
  Since ScaLAPACK support is enabled, defaulting to 'elsi'.
  Will not use alltoall communication since running on < 1024 CPUs.
  Threshold for basis singularities not set.
  Default threshold for basis singularities:  0.1000E-04
  partition_type (choice of integration weights) for integrals was not specified.
  | Using a version of the partition function of Stratmann and coworkers ('stratmann_smoother').
  | At each grid point, the set of atoms used to build the partition table is smoothly restricted to
  | only those atoms whose free-atom density would be non-zero at that grid point.
  Partitioning for Hartree potential was not defined. Using partition_type for integrals.
  | Adjusted default value of keyword multip_moments_threshold to:       0.10000000E-11
  | This value may affect high angular momentum components of the Hartree potential in periodic systems.
  No q(lm)/r^(l+1) cutoff set for long-range Hartree potential.
  | Using default value of  0.100000E-09 .
  | Verify using the multipole_threshold keyword.
  Defaulting to new monopole extrapolation.
  Density update method: automatic selection selected.
------------------------------------------------------------


------------------------------------------------------------
          Reading geometry description geometry.in.
------------------------------------------------------------
  Input structure read successfully.
  The structure contains       13 atoms,  and a total of         48.000 electrons.

  Input geometry:
  | No unit cell requested.
  | Atomic structure:
  |       Atom                x [A]            y [A]            z [A]
  |    1: Species C             0.00000000        0.00000000        0.00000000
  |    2: Species H             1.09300000        0.00000000        0.00000000
  |    3: Species N            -0.47961000        0.00000000       -1.41207000
  |    4: Species H            -0.02271000       -0.76319000       -1.91269000
  |    5: Species H            -1.48890000       -0.13211000       -1.41447000
  |    6: Species C            -0.49584000        1.26211000        0.72868000
  |    7: Species H            -0.23077000        2.15817000        0.16267000
  |    8: Species H            -1.58184000        1.23384000        0.84429000
  |    9: Species H            -0.04342000        1.33229000        1.72062000
  |   10: Species C            -0.39425000       -1.28861000        0.74398000
  |   11: Species O            -1.04291000       -2.19902000        0.28610000
  |   12: Species O             0.01704000       -1.38305000        1.96819000
  |   13: Species H            -0.38816000       -2.23881000        2.18833000
  |

  | The smallest distance between any two atoms is         0.97209765 AA.
  |
  | The first atom of this pair is atom number                     12 .
  | The second atom of this pair is atom number                    13 .

  Number of empty states per atom not set in control.in - providing a guess from actual geometry.
  | Total number of empty states used during s.c.f. cycle:       29
  If you use a very high smearing, use empty_states (per atom!) in control.in to increase this value.

  Structure-dependent array size parameters: 
  | Maximum number of distinct radial functions  :       21
  | Maximum number of basis functions            :      119
  | Number of Kohn-Sham states (occupied + empty):       53
------------------------------------------------------------

------------------------------------------------------------
          Preparing all fixed parts of the calculation.
------------------------------------------------------------
  Determining machine precision:
    2.225073858507201E-308
  Setting up grids for atomic and cluster calculations.

  Creating wave function, potential, and density for free atoms.

  Species: H

  List of occupied orbitals and eigenvalues:
    n    l              occ      energy [Ha]    energy [eV]
    1    0           1.0000        -0.237589        -6.4651


  Species: C

  List of occupied orbitals and eigenvalues:
    n    l              occ      energy [Ha]    energy [eV]
    1    0           2.0000       -10.038835      -273.1706
    2    0           2.0000        -0.502696       -13.6791
    2    1           2.0000        -0.191971        -5.2238


  Species: N

  List of occupied orbitals and eigenvalues:
    n    l              occ      energy [Ha]    energy [eV]
    1    0           2.0000       -14.128000      -384.4424
    2    0           2.0000        -0.681077       -18.5330
    2    1           3.0000        -0.259788        -7.0692


  Species: O

  List of occupied orbitals and eigenvalues:
    n    l              occ      energy [Ha]    energy [eV]
    1    0           2.0000       -18.898188      -514.2459
    2    0           2.0000        -0.878505       -23.9053
    2    1           4.0000        -0.331779        -9.0282

  Creating fixed part of basis set: Ionic, confined, hydrogenic.
 
  H                    hydrogenic:
 
  List of hydrogenic basis orbitals: 
    n    l      effective z      eigenvalue [eV]  inner max. [A]     outer max. [A]     outer radius [A]   
    2    0         2.100000       -14.9728           0.193243           1.317208           4.583499
    2    1         3.500000       -41.6669           0.602369           0.602369           3.723403
 
 
  C                    hydrogenic:
 
  List of hydrogenic basis orbitals: 
    n    l      effective z      eigenvalue [eV]  inner max. [A]     outer max. [A]     outer radius [A]   
    2    1         1.700000        -9.7616           1.230570           1.230570           4.607917
    3    2         6.000000       -54.4224           0.792453           0.792453           3.883070
    2    0         4.900000       -81.6679           0.082559           0.562749           3.078220
 
 
  N                    hydrogenic:
 
  List of hydrogenic basis orbitals: 
    n    l      effective z      eigenvalue [eV]  inner max. [A]     outer max. [A]     outer radius [A]   
    2    1         1.800000       -10.9749           1.177451           1.177451           4.573712
    3    2         6.800000       -69.9026           0.704619           0.704619           3.538137
    3    0         5.800000       -50.8545           0.067388           1.191934           4.250239
 
 
  O                    hydrogenic:
 
  List of hydrogenic basis orbitals: 
    n    l      effective z      eigenvalue [eV]  inner max. [A]     outer max. [A]     outer radius [A]   
    2    1         1.800000       -10.9749           1.164242           1.164242           4.578029
    3    2         7.600000       -87.3180           0.624125           0.624125           3.251020
    3    0         6.400000       -61.9207           0.061167           1.081902           4.001998
 

  Adding cutoff potential to free-atom effective potential.
  Creating atomic-like basis functions for current effective potential.

  Species H                   :

  List of atomic basis orbitals and eigenvalues:
    n    l      energy [Ha]    energy [eV]    outer radius [A]
    1    0        -0.237589        -6.4651       4.527807


  Species C                   :

  List of atomic basis orbitals and eigenvalues:
    n    l      energy [Ha]    energy [eV]    outer radius [A]
    1    0       -10.038835      -273.1706       1.934409
    2    0        -0.502696       -13.6791       4.496620
    2    1        -0.191971        -5.2238       4.551928


  Species N                   :

  List of atomic basis orbitals and eigenvalues:
    n    l      energy [Ha]    energy [eV]    outer radius [A]
    1    0       -14.128000      -384.4424       1.637919
    2    0        -0.681077       -18.5330       4.463241
    2    1        -0.259788        -7.0692       4.518138


  Species O                   :

  List of atomic basis orbitals and eigenvalues:
    n    l      energy [Ha]    energy [eV]    outer radius [A]
    1    0       -18.898188      -514.2459       1.415765
    2    0        -0.878505       -23.9053       4.413171
    2    1        -0.331779        -9.0282       4.522403

  Assembling full basis from fixed parts.
  | Species H :   atomic orbital   1 s accepted.
  | Species H :    hydro orbital   2 s accepted.
  | Species H :    hydro orbital   2 p accepted.
  | Species C :   atomic orbital   1 s accepted.
  | Species C :    hydro orbital   2 s accepted.
  | Species C :   atomic orbital   2 s accepted.
  | Species C :   atomic orbital   2 p accepted.
  | Species C :    hydro orbital   2 p accepted.
  | Species C :    hydro orbital   3 d accepted.
  | Species N :   atomic orbital   1 s accepted.
  | Species N :    hydro orbital   3 s accepted.
  | Species N :   atomic orbital   2 s accepted.
  | Species N :   atomic orbital   2 p accepted.
  | Species N :    hydro orbital   2 p accepted.
  | Species N :    hydro orbital   3 d accepted.
  | Species O :   atomic orbital   1 s accepted.
  | Species O :    hydro orbital   3 s accepted.
  | Species O :   atomic orbital   2 s accepted.
  | Species O :   atomic orbital   2 p accepted.
  | Species O :    hydro orbital   2 p accepted.
  | Species O :    hydro orbital   3 d accepted.
 
  Basis size parameters after reduction:
  | Total number of radial functions:       21
  | Total number of basis functions :      119
 
  Per-task memory consumption for arrays in subroutine allocate_ext:
  |           5.250512MB.
  Testing on-site integration grid accuracy.
  |  Species  Function  <phi|h_atom|phi> (log., in eV)  <phi|h_atom|phi> (rad., in eV)
           1        1                 -6.4663192853                 -6.4651273558
           1        2                 13.7111246313                 13.7170609718
           1        3                 25.2673269279                 25.2674696378
           2        4               -273.1705927641               -273.1705631568
           2        5                -10.7109323383                -10.7107120029
           2        6                 17.4381822266                 17.4352413244
           2        7                 -5.2255326521                 -5.2270484734
           2        8                  8.6835629259                  8.6603288385
           2        9                 27.4952418996                 27.4953360207
           3       10               -384.4424306495               -384.4423701208
           3       11                 12.5842251816                 12.5842222903
           3       12                -15.7264628251                -15.7264433455
           3       13                 -7.0696854293                 -7.0701769954
           3       14                  8.8090390882                  8.7901077751
           3       15                 35.9586762123                 35.9588528632
           4       16               -514.2458688638               -514.2457643834
           4       17                 15.1795651126                 15.1795290741
           4       18                -21.5359799773                -21.5360846186
           4       19                 -9.0283069236                 -9.0284644067
           4       20                  8.3027758564                  8.2834874195
           4       21                 45.8339351984                 45.8338762259

  Preparing densities etc. for the partition functions (integrals / Hartree potential).

  Preparations completed.
  max(cpu_time)          :      0.164 s.
  Wall clock time (cpu1) :      0.166 s.
------------------------------------------------------------

------------------------------------------------------------
          Begin self-consistency loop: Initialization.

          Date     :  20200601, Time     :  001119.398
------------------------------------------------------------

  Initializing index lists of integration centers etc. from given atomic structure:
  | Number of centers in hartree potential         :        13
  | Number of centers in hartree multipole         :        13
  | Number of centers in electron density summation:        13
  | Number of centers in basis integrals           :        13
  | Number of centers in integrals                 :        13
  | Number of centers in hamiltonian               :        13
  * Using 20 tasks for Scalapack Eigenvalue solver.
  Detailed listing of tasks and assigned k-points:
  (for non-periodic systems, the "k-point" denotes an internal label only)
   Task     0 k-point     1 on r01c21.bullx
   Task     1 k-point     1 on r01c21.bullx
   Task     2 k-point     1 on r01c21.bullx
   Task     3 k-point     1 on r01c21.bullx
   Task     4 k-point     1 on r01c21.bullx
   Task     5 k-point     1 on r01c21.bullx
   Task     6 k-point     1 on r01c21.bullx
   Task     7 k-point     1 on r01c21.bullx
   Task     8 k-point     1 on r01c21.bullx
   Task     9 k-point     1 on r01c21.bullx
   Task    10 k-point     1 on r01c21.bullx
   Task    11 k-point     1 on r01c21.bullx
   Task    12 k-point     1 on r01c21.bullx
   Task    13 k-point     1 on r01c21.bullx
   Task    14 k-point     1 on r01c21.bullx
   Task    15 k-point     1 on r01c21.bullx
   Task    16 k-point     1 on r01c21.bullx
   Task    17 k-point     1 on r01c21.bullx
   Task    18 k-point     1 on r01c21.bullx
   Task    19 k-point     1 on r01c21.bullx
  Tasks:    20 split into      5 X      4 BLACS grid
  Calculating block size based on n_basis =          119  max_nprow =            5  max_npcol =            4
  ScaLAPACK block size set to:           16
  Allocating        0.008 MB for ovlp
  Allocating        0.008 MB for ham
  Allocating        0.008 MB for eigenvec
  Required Scalapack workspace - INTEGER:            1  REAL:             1
  Partitioning the integration grid into batches with parallel hashing+maxmin method.
  | Number of batches:      845
  | Maximal batch size:     178
  | Minimal batch size:      52
  | Average batch size:      82.421
  | Standard deviation of batch sizes:      18.647

  Integration load balanced across    20 MPI tasks.
  Work distribution over tasks is as follows:
  Task     0 has       3443 integration points.
  Task     1 has       3556 integration points.
  Task     2 has       3466 integration points.
  Task     3 has       3487 integration points.
  Task     4 has       3490 integration points.
  Task     5 has       3558 integration points.
  Task     6 has       3408 integration points.
  Task     7 has       3418 integration points.
  Task     8 has       3448 integration points.
  Task     9 has       3512 integration points.
  Task    10 has       3487 integration points.
  Task    11 has       3429 integration points.
  Task    12 has       3490 integration points.
  Task    13 has       3466 integration points.
  Task    14 has       3483 integration points.
  Task    15 has       3510 integration points.
  Task    16 has       3492 integration points.
  Task    17 has       3514 integration points.
  Task    18 has       3483 integration points.
  Task    19 has       3506 integration points.
  Initializing partition tables, free-atom densities, potentials, etc. across the integration grid (initialize_grid_storage).
  | initialize_grid_storage: Actual outermost partition radius vs. multipole_radius_free
  | (-- VB: in principle, multipole_radius_free should be larger, hence this output)
  | Species        1: Confinement radius =              4.999999999999999 AA, multipole_radius_free =              5.054417573612229 AA.
  | Species        1: outer_partition_radius set to              5.054417573612229 AA .
  | Species        2: Confinement radius =              4.999999999999999 AA, multipole_radius_free =              5.019602836301480 AA.
  | Species        2: outer_partition_radius set to              5.019602836301480 AA .
  | Species        3: Confinement radius =              4.999999999999999 AA, multipole_radius_free =              5.043624274424571 AA.
  | Species        3: outer_partition_radius set to              5.043624274424571 AA .
  | Species        4: Confinement radius =              4.999999999999999 AA, multipole_radius_free =              5.048384829883283 AA.
  | Species        4: outer_partition_radius set to              5.048384829883283 AA .
  | Original list of interatomic distances with          13 x         13 entries is created.
  | Net number of integration points:    69646
  | of which are non-zero points    :    59535
  Renormalizing the initial density to the exact electron count on the 3D integration grid.
  | Initial density: Formal number of electrons (from input files) :      48.0000000000
  | Integrated number of electrons on 3D grid     :      47.9999409939
  | Charge integration error                      :      -0.0000590061
  | Normalization factor for density and gradient :       1.0000012293
  Obtaining max. number of non-zero basis functions in each batch (get_n_compute_maxes).
  | Maximal number of non-zero basis functions:      119 in task     0
  | Maximal number of non-zero basis functions:      118 in task     1
  | Maximal number of non-zero basis functions:      119 in task     2
  | Maximal number of non-zero basis functions:      119 in task     3
  | Maximal number of non-zero basis functions:      118 in task     4
  | Maximal number of non-zero basis functions:      117 in task     5
  | Maximal number of non-zero basis functions:      118 in task     6
  | Maximal number of non-zero basis functions:      119 in task     7
  | Maximal number of non-zero basis functions:      118 in task     8
  | Maximal number of non-zero basis functions:      117 in task     9
  | Maximal number of non-zero basis functions:      117 in task    10
  | Maximal number of non-zero basis functions:      118 in task    11
  | Maximal number of non-zero basis functions:      117 in task    12
  | Maximal number of non-zero basis functions:      119 in task    13
  | Maximal number of non-zero basis functions:      117 in task    14
  | Maximal number of non-zero basis functions:      119 in task    15
  | Maximal number of non-zero basis functions:      118 in task    16
  | Maximal number of non-zero basis functions:      118 in task    17
  | Maximal number of non-zero basis functions:      118 in task    18
  | Maximal number of non-zero basis functions:      117 in task    19
  Selecting the method for density update.
  Loop over occupied states selected for charge density update.
  Allocating        0.050 MB for KS_eigenvector
  Integrating Hamiltonian matrix: batch-based integration.
  Time summed over all CPUs for integration: real work        0.517 s, elapsed        0.545 s
  Integrating overlap matrix.
  Time summed over all CPUs for integration: real work        0.213 s, elapsed        0.225 s
  Deallocating overlap matrix.

  Updating Kohn-Sham eigenvalues and eigenvectors using ELSI and the ELPA eigensolver.
  ELPA settings:
  | ELPA solver          1
  | Time full => band           :     0.001 s
  | Time band => tridiagonal    :     0.001 s
  | Time solve tridiagonal      :     0.001 s
  Overlap matrix is nonsingular
  | Lowest eigenvalue of overlap  :  0.56E-02
  | Highest eigenvalue of overlap :  0.61E+01
  Finished singularity check of overlap matrix
  | Time :     0.003 s
  Finished Cholesky decomposition
  | Time :     0.001 s
  Finished transformation to standard eigenproblem
  | Time :     0.001 s
  Starting ELPA eigensolver
  | Time full => tridiagonal    :     0.002 s
  | Time solve tridiagonal      :     0.000 s
  | Time ev tridiagonal => full :     0.000 s
  Finished solving standard eigenproblem
  | Time :     0.003 s
  Finished back-transformation of eigenvectors
  | Time :     0.000 s

  Obtaining occupation numbers and chemical potential using ELSI.
  | Chemical potential (Fermi level):    -8.77573182eV
  Writing Kohn-Sham eigenvalues.

  State    Occupation    Eigenvalue [Ha]    Eigenvalue [eV]
      1       2.00000         -19.007618         -517.22359
      2       2.00000         -18.978424         -516.42918
      3       2.00000         -14.245752         -387.64664
      4       2.00000         -10.166655         -276.64875
      5       2.00000         -10.141235         -275.95705
      6       2.00000         -10.132061         -275.70741
      7       2.00000          -1.188388          -32.33769
      8       2.00000          -1.093117          -29.74521
      9       2.00000          -0.990520          -26.95343
     10       2.00000          -0.862599          -23.47253
     11       2.00000          -0.760023          -20.68129
     12       2.00000          -0.678924          -18.47445
     13       2.00000          -0.621611          -16.91489
     14       2.00000          -0.601497          -16.36756
     15       2.00000          -0.595493          -16.20418
     16       2.00000          -0.564574          -15.36284
     17       2.00000          -0.549206          -14.94465
     18       2.00000          -0.527663          -14.35844
     19       2.00000          -0.513212          -13.96522
     20       2.00000          -0.502965          -13.68638
     21       2.00000          -0.478883          -13.03107
     22       2.00000          -0.428629          -11.66358
     23       2.00000          -0.406707          -11.06705
     24       2.00000          -0.390126          -10.61586
     25       0.00000          -0.147946           -4.02582
     26       0.00000          -0.054888           -1.49359
     27       0.00000          -0.038083           -1.03628
     28       0.00000          -0.006062           -0.16494
     29       0.00000          -0.004924           -0.13398
     30       0.00000           0.010868            0.29574
     31       0.00000           0.016647            0.45300
     32       0.00000           0.030072            0.81831
     33       0.00000           0.045938            1.25003
     34       0.00000           0.060446            1.64481
     35       0.00000           0.085580            2.32875
     36       0.00000           0.135384            3.68399
     37       0.00000           0.143617            3.90802
     38       0.00000           0.201933            5.49487
     39       0.00000           0.209613            5.70386
     40       0.00000           0.231619            6.30268
     41       0.00000           0.257477            7.00632
     42       0.00000           0.269543            7.33464
     43       0.00000           0.273731            7.44860
     44       0.00000           0.318446            8.66536
     45       0.00000           0.324330            8.82546
     46       0.00000           0.356079            9.68941
     47       0.00000           0.375196           10.20959
     48       0.00000           0.381493           10.38096
     49       0.00000           0.450312           12.25361
     50       0.00000           0.478603           13.02345
     51       0.00000           0.507753           13.81666
     52       0.00000           0.524424           14.27029
     53       0.00000           0.596438           16.22990

  Highest occupied state (VBM) at    -10.61586083 eV
  | Occupation number:      2.00000000

  Lowest unoccupied state (CBM) at    -4.02582173 eV
  | Occupation number:      0.00000000

  Overall HOMO-LUMO gap:      6.59003909 eV.
  Calculating total energy contributions from superposition of free atom densities.

  Total energy components:
  | Sum of eigenvalues            :        -188.85176076 Ha       -5138.91787544 eV
  | XC energy correction          :         -41.78552166 Ha       -1137.04189652 eV
  | XC potential correction       :          53.71551163 Ha        1461.67344051 eV
  | Free-atom electrostatic energy:        -146.85542859 Ha       -3996.13953330 eV
  | Hartree energy correction     :           0.00000000 Ha           0.00000000 eV
  | vdW energy correction         :           0.00000000 Ha           0.00000000 eV
  | Entropy correction            :           0.00000000 Ha           0.00000000 eV
  | ---------------------------
  | Total energy                  :        -323.77719938 Ha       -8810.42586476 eV
  | Total energy, T -> 0          :        -323.77719938 Ha       -8810.42586476 eV  <-- do not rely on this value for anything but (periodic) metals
  | Electronic free energy        :        -323.77719938 Ha       -8810.42586476 eV

  Derived energy quantities:
  | Kinetic energy                :         320.47390424 Ha        8720.53863050 eV
  | Electrostatic energy          :        -602.46558196 Ha      -16393.92259874 eV
  | Energy correction for multipole
  | error in Hartree potential    :           0.00000000 Ha           0.00000000 eV
  | Sum of eigenvalues per atom                           :        -395.30137503 eV
  | Total energy (T->0) per atom                          :        -677.72506652 eV  <-- do not rely on this value for anything but (periodic) metals
  | Electronic free energy per atom                       :        -677.72506652 eV
  Initialize hartree_potential_storage
  Max. number of atoms included in rho_multipole:           13

  End scf initialization - timings             :  max(cpu_time)    wall_clock(cpu1)
  | Time for scf. initialization               :        0.092 s           0.092 s
  | Boundary condition initialization          :        0.000 s           0.000 s
  | Integration                                :        0.040 s           0.040 s
  | Solution of K.-S. eqns.                    :        0.009 s           0.009 s
  | Grid partitioning                          :        0.020 s           0.020 s
  | Preloading free-atom quantities on grid    :        0.003 s           0.002 s
  | Free-atom superposition energy             :        0.005 s           0.005 s
  | Total energy evaluation                    :        0.000 s           0.000 s

  Partial memory accounting:
  | Current value for overall tracked memory usage on task 0  :           0.133 MB
  | Peak value for overall tracked memory usage on task 0     :           0.814 MB after allocating wave
  | Largest tracked array allocation on task 0 so far         :           0.169 MB  when allocating H_times_psi
  Note:  These values currently only include a subset of arrays which are explicitly tracked.
  The "true" memory usage will be greater.
------------------------------------------------------------

------------------------------------------------------------
          Begin self-consistency iteration #    1

  Date     :  20200601, Time     :  001119.490
------------------------------------------------------------
  Evaluating new KS density.
  Integration grid: deviation in total charge (<rho> - N_e) =   0.000000E+00
  Pulay mixing of updated and previous charge densities.

  Evaluating partitioned Hartree potential by multipole expansion.
  | Analytical far-field extrapolation by fixed multipoles:
  | Hartree multipole sum: apparent total charge =  -0.174269E-03
  Summing up the Hartree potential.
  Time summed over all CPUs for potential: real work        0.420 s, elapsed        0.429 s
  | RMS charge density error from multipole expansion :   0.593857E-02

  Integrating Hamiltonian matrix: batch-based integration.
  Time summed over all CPUs for integration: real work        0.509 s, elapsed        0.550 s

  Updating Kohn-Sham eigenvalues and eigenvectors using ELSI and the ELPA eigensolver.
  ELPA settings:
  | ELPA solver          1
  Finished transformation to standard eigenproblem
  | Time :     0.000 s
  Starting ELPA eigensolver
  | Time full => tridiagonal    :     0.002 s
  | Time solve tridiagonal      :     0.000 s
  | Time ev tridiagonal => full :     0.000 s
  Finished solving standard eigenproblem
  | Time :     0.003 s
  Finished back-transformation of eigenvectors
  | Time :     0.000 s

  Obtaining occupation numbers and chemical potential using ELSI.
  | Chemical potential (Fermi level):    -7.79268841eV
  Writing Kohn-Sham eigenvalues.

  State    Occupation    Eigenvalue [Ha]    Eigenvalue [eV]
      1       2.00000         -18.908643         -514.53035
      2       2.00000         -18.840464         -512.67511
      3       2.00000         -14.092422         -383.47433
      4       2.00000         -10.115104         -275.24599
      5       2.00000         -10.061788         -273.79518
      6       2.00000         -10.030747         -272.95051
      7       2.00000          -1.141085          -31.05051
      8       2.00000          -1.032576          -28.09782
      9       2.00000          -0.917170          -24.95747
     10       2.00000          -0.796679          -21.67873
     11       2.00000          -0.709452          -19.30516
     12       2.00000          -0.629901          -17.14047
     13       2.00000          -0.562676          -15.31120
     14       2.00000          -0.546123          -14.86077
     15       2.00000          -0.533284          -14.51140
     16       2.00000          -0.500494          -13.61913
     17       2.00000          -0.498036          -13.55226
     18       2.00000          -0.472076          -12.84585
     19       2.00000          -0.446861          -12.15971
     20       2.00000          -0.443533          -12.06914
     21       2.00000          -0.424133          -11.54124
     22       2.00000          -0.369667          -10.05915
     23       2.00000          -0.334056           -9.09012
     24       2.00000          -0.317153           -8.63018
     25       0.00000          -0.111222           -3.02649
     26       0.00000          -0.026492           -0.72088
     27       0.00000          -0.010167           -0.27667
     28       0.00000           0.024844            0.67604
     29       0.00000           0.026073            0.70947
     30       0.00000           0.052253            1.42187
     31       0.00000           0.059650            1.62315
     32       0.00000           0.069247            1.88430
     33       0.00000           0.087428            2.37904
     34       0.00000           0.101990            2.77529
     35       0.00000           0.127124            3.45922
     36       0.00000           0.158932            4.32477
     37       0.00000           0.172323            4.68915
     38       0.00000           0.227978            6.20360
     39       0.00000           0.238194            6.48159
     40       0.00000           0.267717            7.28494
     41       0.00000           0.293173            7.97764
     42       0.00000           0.305136            8.30319
     43       0.00000           0.309207            8.41395
     44       0.00000           0.361296            9.83137
     45       0.00000           0.365890            9.95637
     46       0.00000           0.389803           10.60707
     47       0.00000           0.413470           11.25110
     48       0.00000           0.416771           11.34091
     49       0.00000           0.489580           13.32216
     50       0.00000           0.519161           14.12708
     51       0.00000           0.544267           14.81026
     52       0.00000           0.557839           15.17958
     53       0.00000           0.629473           17.12884

  Highest occupied state (VBM) at     -8.63018390 eV
  | Occupation number:      2.00000000

  Lowest unoccupied state (CBM) at    -3.02649258 eV
  | Occupation number:      0.00000000

  Overall HOMO-LUMO gap:      5.60369132 eV.

  Total energy components:
  | Sum of eigenvalues            :        -185.44824715 Ha       -5046.30355805 eV
  | XC energy correction          :         -42.11364489 Ha       -1145.97058383 eV
  | XC potential correction       :          54.14229802 Ha        1473.28688926 eV
  | Free-atom electrostatic energy:        -146.85542859 Ha       -3996.13953330 eV
  | Hartree energy correction     :          -3.32397579 Ha         -90.44998321 eV
  | vdW energy correction         :           0.00000000 Ha           0.00000000 eV
  | Entropy correction            :           0.00000000 Ha           0.00000000 eV
  | ---------------------------
  | Total energy                  :        -323.59899839 Ha       -8805.57676913 eV
  | Total energy, T -> 0          :        -323.59899839 Ha       -8805.57676913 eV  <-- do not rely on this value for anything but (periodic) metals
  | Electronic free energy        :        -323.59899839 Ha       -8805.57676913 eV

  Derived energy quantities:
  | Kinetic energy                :         322.25603520 Ha        8769.03288134 eV
  | Electrostatic energy          :        -603.74138871 Ha      -16428.63906664 eV
  | Energy correction for multipole
  | error in Hartree potential    :           0.01190309 Ha           0.32389966 eV
  | Sum of eigenvalues per atom                           :        -388.17719677 eV
  | Total energy (T->0) per atom                          :        -677.35205916 eV  <-- do not rely on this value for anything but (periodic) metals
  | Electronic free energy per atom                       :        -677.35205916 eV

  Self-consistency convergence accuracy:
  | Change of charge density      :  0.5788E+00
  | Change of sum of eigenvalues  :  0.9261E+02 eV
  | Change of total energy        :  0.4849E+01 eV

  End self-consistency iteration #     1       :  max(cpu_time)    wall_clock(cpu1)
  | Time for this iteration                    :        0.078 s           0.078 s
  | Charge density update                      :        0.021 s           0.022 s
  | Density mixing                             :        0.000 s           0.000 s
  | Hartree multipole update                   :        0.001 s           0.002 s
  | Hartree multipole summation                :        0.022 s           0.022 s
  | Integration                                :        0.028 s           0.028 s
  | Solution of K.-S. eqns.                    :        0.004 s           0.004 s
  | Total energy evaluation                    :        0.000 s           0.000 s

  Partial memory accounting:
  | Current value for overall tracked memory usage on task 0  :           0.133 MB
  | Peak value for overall tracked memory usage on task 0     :           0.814 MB after allocating wave
  | Largest tracked array allocation on task 0 so far         :           0.508 MB  when allocating gradient_basis_wave
  Note:  These values currently only include a subset of arrays which are explicitly tracked.
  The "true" memory usage will be greater.
------------------------------------------------------------

------------------------------------------------------------
          Begin self-consistency iteration #    2

  Date     :  20200601, Time     :  001119.573
------------------------------------------------------------
  Evaluating new KS density.
  Integration grid: deviation in total charge (<rho> - N_e) =   2.131628E-14
  Pulay mixing of updated and previous charge densities.

  Evaluating partitioned Hartree potential by multipole expansion.
  | Analytical far-field extrapolation by fixed multipoles:
  | Hartree multipole sum: apparent total charge =  -0.323373E-03
  Summing up the Hartree potential.
  Time summed over all CPUs for potential: real work        0.419 s, elapsed        0.432 s
  | RMS charge density error from multipole expansion :   0.142257E-01

  Integrating Hamiltonian matrix: batch-based integration.
  Time summed over all CPUs for integration: real work        0.509 s, elapsed        0.551 s

  Updating Kohn-Sham eigenvalues and eigenvectors using ELSI and the ELPA eigensolver.
  ELPA settings:
  | ELPA solver          1
  Finished transformation to standard eigenproblem
  | Time :     0.000 s
  Starting ELPA eigensolver
  | Time full => tridiagonal    :     0.002 s
  | Time solve tridiagonal      :     0.000 s
  | Time ev tridiagonal => full :     0.000 s
  Finished solving standard eigenproblem
  | Time :     0.003 s
  Finished back-transformation of eigenvectors
  | Time :     0.000 s

  Obtaining occupation numbers and chemical potential using ELSI.
  | Chemical potential (Fermi level):    -2.48578479eV
  Highest occupied state (VBM) at     -6.52626219 eV
  | Occupation number:      2.00000000

  Lowest unoccupied state (CBM) at    -1.73039323 eV
  | Occupation number:      0.00000000

  Overall HOMO-LUMO gap:      4.79586896 eV.

  Checking to see if s.c.f. parameters should be adjusted.

  Total energy components:
  | Sum of eigenvalues            :        -181.82702797 Ha       -4947.76517047 eV
  | XC energy correction          :         -42.47751104 Ha       -1155.87188550 eV
  | XC potential correction       :          54.61406703 Ha        1486.12437704 eV
  | Free-atom electrostatic energy:        -146.85542859 Ha       -3996.13953330 eV
  | Hartree energy correction     :          -6.97634065 Ha        -189.83588779 eV
  | vdW energy correction         :           0.00000000 Ha           0.00000000 eV
  | Entropy correction            :           0.00000000 Ha           0.00000000 eV
  | ---------------------------
  | Total energy                  :        -323.52224122 Ha       -8803.48810002 eV
  | Total energy, T -> 0          :        -323.52224122 Ha       -8803.48810002 eV  <-- do not rely on this value for anything but (periodic) metals
  | Electronic free energy        :        -323.52224122 Ha       -8803.48810002 eV

  Derived energy quantities:
  | Kinetic energy                :         323.59115883 Ha        8805.36344370 eV
  | Electrostatic energy          :        -604.63588901 Ha      -16452.97965822 eV
  | Energy correction for multipole
  | error in Hartree potential    :           0.02657999 Ha           0.72327844 eV
  | Sum of eigenvalues per atom                           :        -380.59732081 eV
  | Total energy (T->0) per atom                          :        -677.19139231 eV  <-- do not rely on this value for anything but (periodic) metals
  | Electronic free energy per atom                       :        -677.19139231 eV

  Self-consistency convergence accuracy:
  | Change of charge density      :  0.3618E+00
  | Change of sum of eigenvalues  :  0.9854E+02 eV
  | Change of total energy        :  0.2089E+01 eV

  End self-consistency iteration #     2       :  max(cpu_time)    wall_clock(cpu1)
  | Time for this iteration                    :        0.078 s           0.076 s
  | Charge density update                      :        0.022 s           0.020 s
  | Density mixing                             :        0.001 s           0.001 s
  | Hartree multipole update                   :        0.001 s           0.001 s
  | Hartree multipole summation                :        0.022 s           0.022 s
  | Integration                                :        0.028 s           0.028 s
  | Solution of K.-S. eqns.                    :        0.004 s           0.004 s
  | Total energy evaluation                    :        0.000 s           0.000 s

  Partial memory accounting:
  | Current value for overall tracked memory usage on task 0  :           0.134 MB
  | Peak value for overall tracked memory usage on task 0     :           0.814 MB after allocating wave
  | Largest tracked array allocation on task 0 so far         :           0.508 MB  when allocating gradient_basis_wave
  Note:  These values currently only include a subset of arrays which are explicitly tracked.
  The "true" memory usage will be greater.
------------------------------------------------------------

------------------------------------------------------------
          Begin self-consistency iteration #    3

  Date     :  20200601, Time     :  001119.654
------------------------------------------------------------
  Evaluating new KS density.
  Integration grid: deviation in total charge (<rho> - N_e) =  -7.105427E-15
  Pulay mixing of updated and previous charge densities.

  Evaluating partitioned Hartree potential by multipole expansion.
  | Analytical far-field extrapolation by fixed multipoles:
  | Hartree multipole sum: apparent total charge =  -0.430308E-03
  Summing up the Hartree potential.
  Time summed over all CPUs for potential: real work        0.419 s, elapsed        0.431 s
  | RMS charge density error from multipole expansion :   0.225969E-01

  Integrating Hamiltonian matrix: batch-based integration.
  Time summed over all CPUs for integration: real work        0.509 s, elapsed        0.551 s

  Updating Kohn-Sham eigenvalues and eigenvectors using ELSI and the ELPA eigensolver.
  ELPA settings:
  | ELPA solver          1
  Finished transformation to standard eigenproblem
  | Time :     0.000 s
  Starting ELPA eigensolver
  | Time full => tridiagonal    :     0.002 s
  | Time solve tridiagonal      :     0.000 s
  | Time ev tridiagonal => full :     0.000 s
  Finished solving standard eigenproblem
  | Time :     0.003 s
  Finished back-transformation of eigenvectors
  | Time :     0.000 s

  Obtaining occupation numbers and chemical potential using ELSI.
  | Chemical potential (Fermi level):    -1.83628583eV
  Highest occupied state (VBM) at     -5.86053970 eV
  | Occupation number:      2.00000000

  Lowest unoccupied state (CBM) at    -0.99615217 eV
  | Occupation number:      0.00000000

  Overall HOMO-LUMO gap:      4.86438753 eV.

  Total energy components:
  | Sum of eigenvalues            :        -180.52638818 Ha       -4912.37296116 eV
  | XC energy correction          :         -42.62800024 Ha       -1159.96690508 eV
  | XC potential correction       :          54.80597321 Ha        1491.34640990 eV
  | Free-atom electrostatic energy:        -146.85542859 Ha       -3996.13953330 eV
  | Hartree energy correction     :          -8.30648358 Ha        -226.03091861 eV
  | vdW energy correction         :           0.00000000 Ha           0.00000000 eV
  | Entropy correction            :           0.00000000 Ha           0.00000000 eV
  | ---------------------------
  | Total energy                  :        -323.51032739 Ha       -8803.16390825 eV
  | Total energy, T -> 0          :        -323.51032739 Ha       -8803.16390825 eV  <-- do not rely on this value for anything but (periodic) metals
  | Electronic free energy        :        -323.51032739 Ha       -8803.16390825 eV

  Derived energy quantities:
  | Kinetic energy                :         323.14800078 Ha        8793.30449953 eV
  | Electrostatic energy          :        -604.03032792 Ha      -16436.50150270 eV
  | Energy correction for multipole
  | error in Hartree potential    :           0.03814004 Ha           1.03784334 eV
  | Sum of eigenvalues per atom                           :        -377.87484317 eV
  | Total energy (T->0) per atom                          :        -677.16645448 eV  <-- do not rely on this value for anything but (periodic) metals
  | Electronic free energy per atom                       :        -677.16645448 eV

  Self-consistency convergence accuracy:
  | Change of charge density      :  0.2006E+00
  | Change of sum of eigenvalues  :  0.3539E+02 eV
  | Change of total energy        :  0.3242E+00 eV

  End self-consistency iteration #     3       :  max(cpu_time)    wall_clock(cpu1)
  | Time for this iteration                    :        0.077 s           0.076 s
  | Charge density update                      :        0.021 s           0.020 s
  | Density mixing                             :        0.001 s           0.001 s
  | Hartree multipole update                   :        0.001 s           0.001 s
  | Hartree multipole summation                :        0.022 s           0.022 s
  | Integration                                :        0.028 s           0.028 s
  | Solution of K.-S. eqns.                    :        0.004 s           0.003 s
  | Total energy evaluation                    :        0.000 s           0.000 s

  Partial memory accounting:
  | Current value for overall tracked memory usage on task 0  :           0.134 MB
  | Peak value for overall tracked memory usage on task 0     :           0.814 MB after allocating wave
  | Largest tracked array allocation on task 0 so far         :           0.508 MB  when allocating gradient_basis_wave
  Note:  These values currently only include a subset of arrays which are explicitly tracked.
  The "true" memory usage will be greater.
------------------------------------------------------------

------------------------------------------------------------
          Begin self-consistency iteration #    4

  Date     :  20200601, Time     :  001119.735
------------------------------------------------------------
  Evaluating new KS density.
  Integration grid: deviation in total charge (<rho> - N_e) =   7.105427E-15
  Pulay mixing of updated and previous charge densities.

  Evaluating partitioned Hartree potential by multipole expansion.
  | Analytical far-field extrapolation by fixed multipoles:
  | Hartree multipole sum: apparent total charge =  -0.464395E-03
  Summing up the Hartree potential.
  Time summed over all CPUs for potential: real work        0.411 s, elapsed        0.429 s
  | RMS charge density error from multipole expansion :   0.259394E-01

  Integrating Hamiltonian matrix: batch-based integration.
  Time summed over all CPUs for integration: real work        0.508 s, elapsed        0.550 s

  Updating Kohn-Sham eigenvalues and eigenvectors using ELSI and the ELPA eigensolver.
  ELPA settings:
  | ELPA solver          1
  Finished transformation to standard eigenproblem
  | Time :     0.000 s
  Starting ELPA eigensolver
  | Time full => tridiagonal    :     0.002 s
  | Time solve tridiagonal      :     0.000 s
  | Time ev tridiagonal => full :     0.000 s
  Finished solving standard eigenproblem
  | Time :     0.002 s
  Finished back-transformation of eigenvectors
  | Time :     0.000 s

  Obtaining occupation numbers and chemical potential using ELSI.
  | Chemical potential (Fermi level):    -1.76620437eV
  Highest occupied state (VBM) at     -5.68620379 eV
  | Occupation number:      2.00000000

  Lowest unoccupied state (CBM) at    -0.92220020 eV
  | Occupation number:      0.00000000

  Overall HOMO-LUMO gap:      4.76400359 eV.

  Total energy components:
  | Sum of eigenvalues            :        -180.39016503 Ha       -4908.66614063 eV
  | XC energy correction          :         -42.66297394 Ha       -1160.91858770 eV
  | XC potential correction       :          54.84999137 Ha        1492.54420492 eV
  | Free-atom electrostatic energy:        -146.85542859 Ha       -3996.13953330 eV
  | Hartree energy correction     :          -8.45097994 Ha        -229.96286468 eV
  | vdW energy correction         :           0.00000000 Ha           0.00000000 eV
  | Entropy correction            :           0.00000000 Ha           0.00000000 eV
  | ---------------------------
  | Total energy                  :        -323.50955613 Ha       -8803.14292139 eV
  | Total energy, T -> 0          :        -323.50955613 Ha       -8803.14292139 eV  <-- do not rely on this value for anything but (periodic) metals
  | Electronic free energy        :        -323.50955613 Ha       -8803.14292139 eV

  Derived energy quantities:
  | Kinetic energy                :         322.77567582 Ha        8783.17302195 eV
  | Electrostatic energy          :        -603.62225802 Ha      -16425.39735563 eV
  | Energy correction for multipole
  | error in Hartree potential    :           0.04231798 Ha           1.15153080 eV
  | Sum of eigenvalues per atom                           :        -377.58970313 eV
  | Total energy (T->0) per atom                          :        -677.16484011 eV  <-- do not rely on this value for anything but (periodic) metals
  | Electronic free energy per atom                       :        -677.16484011 eV

  Self-consistency convergence accuracy:
  | Change of charge density      :  0.6068E-01
  | Change of sum of eigenvalues  :  0.3707E+01 eV
  | Change of total energy        :  0.2099E-01 eV

  End self-consistency iteration #     4       :  max(cpu_time)    wall_clock(cpu1)
  | Time for this iteration                    :        0.077 s           0.075 s
  | Charge density update                      :        0.021 s           0.020 s
  | Density mixing                             :        0.001 s           0.000 s
  | Hartree multipole update                   :        0.001 s           0.002 s
  | Hartree multipole summation                :        0.022 s           0.021 s
  | Integration                                :        0.028 s           0.028 s
  | Solution of K.-S. eqns.                    :        0.004 s           0.004 s
  | Total energy evaluation                    :        0.000 s           0.000 s

  Partial memory accounting:
  | Current value for overall tracked memory usage on task 0  :           0.134 MB
  | Peak value for overall tracked memory usage on task 0     :           0.814 MB after allocating wave
  | Largest tracked array allocation on task 0 so far         :           0.508 MB  when allocating gradient_basis_wave
  Note:  These values currently only include a subset of arrays which are explicitly tracked.
  The "true" memory usage will be greater.
------------------------------------------------------------

------------------------------------------------------------
          Begin self-consistency iteration #    5

  Date     :  20200601, Time     :  001119.815
------------------------------------------------------------
  Evaluating new KS density.
  Integration grid: deviation in total charge (<rho> - N_e) =   0.000000E+00
  Pulay mixing of updated and previous charge densities.

  Evaluating partitioned Hartree potential by multipole expansion.
  | Analytical far-field extrapolation by fixed multipoles:
  | Hartree multipole sum: apparent total charge =  -0.457893E-03
  Summing up the Hartree potential.
  Time summed over all CPUs for potential: real work        0.411 s, elapsed        0.425 s
  | RMS charge density error from multipole expansion :   0.256607E-01

  Integrating Hamiltonian matrix: batch-based integration.
  Time summed over all CPUs for integration: real work        0.509 s, elapsed        0.550 s

  Updating Kohn-Sham eigenvalues and eigenvectors using ELSI and the ELPA eigensolver.
  ELPA settings:
  | ELPA solver          1
  Finished transformation to standard eigenproblem
  | Time :     0.000 s
  Starting ELPA eigensolver
  | Time full => tridiagonal    :     0.002 s
  | Time solve tridiagonal      :     0.000 s
  | Time ev tridiagonal => full :     0.000 s
  Finished solving standard eigenproblem
  | Time :     0.002 s
  Finished back-transformation of eigenvectors
  | Time :     0.000 s

  Obtaining occupation numbers and chemical potential using ELSI.
  | Chemical potential (Fermi level):    -1.82065412eV
  Highest occupied state (VBM) at     -5.76709379 eV
  | Occupation number:      2.00000000

  Lowest unoccupied state (CBM) at    -1.00865562 eV
  | Occupation number:      0.00000000

  Overall HOMO-LUMO gap:      4.75843817 eV.

  Total energy components:
  | Sum of eigenvalues            :        -180.57319303 Ha       -4913.64658599 eV
  | XC energy correction          :         -42.64054989 Ha       -1160.30839837 eV
  | XC potential correction       :          54.82092703 Ha        1491.75332404 eV
  | Free-atom electrostatic energy:        -146.85542859 Ha       -3996.13953330 eV
  | Hartree energy correction     :          -8.26102039 Ha        -224.79380224 eV
  | vdW energy correction         :           0.00000000 Ha           0.00000000 eV
  | Entropy correction            :           0.00000000 Ha           0.00000000 eV
  | ---------------------------
  | Total energy                  :        -323.50926488 Ha       -8803.13499586 eV
  | Total energy, T -> 0          :        -323.50926488 Ha       -8803.13499586 eV  <-- do not rely on this value for anything but (periodic) metals
  | Electronic free energy        :        -323.50926488 Ha       -8803.13499586 eV

  Derived energy quantities:
  | Kinetic energy                :         322.68070236 Ha        8780.58866261 eV
  | Electrostatic energy          :        -603.54941734 Ha      -16423.41526009 eV
  | Energy correction for multipole
  | error in Hartree potential    :           0.04169969 Ha           1.13470624 eV
  | Sum of eigenvalues per atom                           :        -377.97281431 eV
  | Total energy (T->0) per atom                          :        -677.16423045 eV  <-- do not rely on this value for anything but (periodic) metals
  | Electronic free energy per atom                       :        -677.16423045 eV

  Self-consistency convergence accuracy:
  | Change of charge density      :  0.2026E-01
  | Change of sum of eigenvalues  : -0.4980E+01 eV
  | Change of total energy        :  0.7926E-02 eV

  End self-consistency iteration #     5       :  max(cpu_time)    wall_clock(cpu1)
  | Time for this iteration                    :        0.077 s           0.076 s
  | Charge density update                      :        0.022 s           0.020 s
  | Density mixing                             :        0.001 s           0.001 s
  | Hartree multipole update                   :        0.001 s           0.001 s
  | Hartree multipole summation                :        0.022 s           0.022 s
  | Integration                                :        0.028 s           0.028 s
  | Solution of K.-S. eqns.                    :        0.003 s           0.004 s
  | Total energy evaluation                    :        0.000 s           0.000 s

  Partial memory accounting:
  | Current value for overall tracked memory usage on task 0  :           0.134 MB
  | Peak value for overall tracked memory usage on task 0     :           0.814 MB after allocating wave
  | Largest tracked array allocation on task 0 so far         :           0.508 MB  when allocating gradient_basis_wave
  Note:  These values currently only include a subset of arrays which are explicitly tracked.
  The "true" memory usage will be greater.
------------------------------------------------------------

------------------------------------------------------------
          Begin self-consistency iteration #    6

  Date     :  20200601, Time     :  001119.895
------------------------------------------------------------
  Evaluating new KS density.
  Integration grid: deviation in total charge (<rho> - N_e) =   7.105427E-15
  Pulay mixing of updated and previous charge densities.

  Evaluating partitioned Hartree potential by multipole expansion.
[...]
  |   Hirshfeld dipole moment :      0.06366099
  |   Hirshfeld second moments:      0.00894909      -0.01919855      -0.01209304
  |                                 -0.01919855      -0.01599796       0.00390125
  |                                 -0.01209304       0.00390125      -0.01355807
  ----------------------------------------------------------------------
  | Atom    12: O
  |   Hirshfeld charge        :     -0.14392667
  |   Free atom volume        :     23.61338643
  |   Hirshfeld volume        :     20.70065781
  |   Hirshfeld dipole vector :     -0.02603551      -0.02041092      -0.02643390
  |   Hirshfeld dipole moment :      0.04234624
  |   Hirshfeld second moments:      0.04889382      -0.00210262      -0.01994860
  |                                 -0.00210262       0.07904760      -0.03321771
  |                                 -0.01994860      -0.03321771       0.06091687
  ----------------------------------------------------------------------
  | Atom    13: H
  |   Hirshfeld charge        :      0.16821844
  |   Free atom volume        :      9.95071624
  |   Hirshfeld volume        :      6.44445520
  |   Hirshfeld dipole vector :     -0.03221671      -0.09035425       0.05676556
  |   Hirshfeld dipole moment :      0.11146361
  |   Hirshfeld second moments:      0.10599545      -0.01469675      -0.01441121
  |                                 -0.01469675       0.10479006      -0.01698067
  |                                 -0.01441121      -0.01698067       0.10533774
  ----------------------------------------------------------------------


  Total energy components:
  | Sum of eigenvalues            :        -180.58792893 Ha       -4914.04757027 eV
  | XC energy correction          :         -42.63442812 Ha       -1160.14181649 eV
  | XC potential correction       :          54.81305312 Ha        1491.53906413 eV
  | Free-atom electrostatic energy:        -146.85542859 Ha       -3996.13953330 eV
  | Hartree energy correction     :          -8.24445894 Ha        -224.34314231 eV
  | vdW energy correction         :          -0.00316475 Ha          -0.08611731 eV
  | Entropy correction            :           0.00000000 Ha           0.00000000 eV
  | ---------------------------
  | Total energy                  :        -323.51235622 Ha       -8803.21911556 eV
  | Total energy, T -> 0          :        -323.51235622 Ha       -8803.21911556 eV  <-- do not rely on this value for anything but (periodic) metals
  | Electronic free energy        :        -323.51235622 Ha       -8803.21911556 eV

  Derived energy quantities:
  | Kinetic energy                :         322.55239357 Ha        8777.09720288 eV
  | Electrostatic energy          :        -603.42715692 Ha      -16420.08838464 eV
  | Energy correction for multipole
  | error in Hartree potential    :           0.04213825 Ha           1.14664008 eV
  | Sum of eigenvalues per atom                           :        -378.00365925 eV
  | Total energy (T->0) per atom                          :        -677.17070120 eV  <-- do not rely on this value for anything but (periodic) metals
  | Electronic free energy per atom                       :        -677.17070120 eV

  atomic forces [eV/Ang]:
  -----------------------
  atom #    1
   Hellmann-Feynman              :  0.388769E+00 -0.163587E+00  0.105639E+01
   Ionic forces                  :  0.000000E+00  0.000000E+00  0.000000E+00
   Multipole                     :  0.214218E-01  0.282507E+00 -0.311354E+00
   Pulay + GGA                   : -0.112003E+01 -0.179004E+00 -0.152985E+01
   Van der Waals                 :  0.170856E-02  0.719794E-03 -0.162692E-02
   ----------------------------------------------------------------
   Total forces(   1)            : -0.708132E+00 -0.593644E-01 -0.786445E+00
  atom #    2
   Hellmann-Feynman              :  0.292848E+00  0.458105E-01 -0.122979E+00
   Ionic forces                  :  0.000000E+00  0.000000E+00  0.000000E+00
   Multipole                     :  0.182299E+00  0.308040E-01 -0.164541E-01
   Pulay + GGA                   : -0.136570E+00  0.385025E-01  0.552026E-02
   Van der Waals                 :  0.416372E-02 -0.361878E-02 -0.471170E-02
   ----------------------------------------------------------------
   Total forces(   2)            :  0.342741E+00  0.111498E+00 -0.138625E+00
  atom #    3
   Hellmann-Feynman              :  0.332295E+01  0.106203E+02 -0.384074E+01
   Ionic forces                  :  0.000000E+00  0.000000E+00  0.000000E+00
   Multipole                     : -0.150782E+00  0.178274E+00 -0.845259E+00
   Pulay + GGA                   : -0.228413E+01 -0.102959E+02  0.561681E+01
   Van der Waals                 :  0.418731E-02 -0.331348E-02 -0.884165E-02
   ----------------------------------------------------------------
   Total forces(   3)            :  0.892220E+00  0.499410E+00  0.921971E+00
  atom #    4
   Hellmann-Feynman              : -0.248230E+00 -0.253205E+00 -0.537417E-01
   Ionic forces                  :  0.000000E+00  0.000000E+00  0.000000E+00
   Multipole                     : -0.903103E-03 -0.796104E-01 -0.819570E-01
   Pulay + GGA                   : -0.878241E-01  0.196931E+00  0.835783E-01
   Van der Waals                 :  0.403756E-03  0.689188E-02 -0.731895E-02
   ----------------------------------------------------------------
   Total forces(   4)            : -0.336554E+00 -0.128993E+00 -0.594393E-01
  atom #    5
   Hellmann-Feynman              : -0.261426E+00 -0.311546E+00 -0.587379E-01
   Ionic forces                  :  0.000000E+00  0.000000E+00  0.000000E+00
   Multipole                     : -0.864473E-01 -0.468838E-01 -0.451156E-01
   Pulay + GGA                   :  0.239837E+00  0.557714E-01 -0.226774E-01
   Van der Waals                 : -0.152937E-02  0.360206E-02 -0.121035E-01
   ----------------------------------------------------------------
   Total forces(   5)            : -0.109566E+00 -0.299056E+00 -0.138634E+00
  atom #    6
   Hellmann-Feynman              :  0.209877E+00 -0.386699E+00  0.181067E+00
   Ionic forces                  :  0.000000E+00  0.000000E+00  0.000000E+00
   Multipole                     : -0.144146E+00  0.692028E+00  0.264920E+00
   Pulay + GGA                   :  0.135490E+00 -0.644685E+00 -0.403633E+00
   Van der Waals                 : -0.148277E-04  0.610149E-02  0.178667E-03
   ----------------------------------------------------------------
   Total forces(   6)            :  0.201206E+00 -0.333254E+00  0.425332E-01
  atom #    7
   Hellmann-Feynman              :  0.880886E-01  0.167333E-01 -0.178330E+00
   Ionic forces                  :  0.000000E+00  0.000000E+00  0.000000E+00
   Multipole                     :  0.119540E-01  0.134249E+00 -0.146121E-01
   Pulay + GGA                   : -0.368629E-01 -0.124835E+00  0.208056E-01
   Van der Waals                 : -0.338199E-02  0.135646E-02  0.292397E-02
   ----------------------------------------------------------------
   Total forces(   7)            :  0.597977E-01  0.275041E-01 -0.169213E+00
  atom #    8
   Hellmann-Feynman              : -0.241050E+00 -0.344008E-01 -0.144335E-01
   Ionic forces                  :  0.000000E+00  0.000000E+00  0.000000E+00
   Multipole                     : -0.118500E+00  0.408682E-01  0.450560E-01
   Pulay + GGA                   :  0.111023E+00  0.215494E-01 -0.174790E-02
   Van der Waals                 : -0.145850E-02  0.363970E-02  0.903737E-02
   ----------------------------------------------------------------
   Total forces(   8)            : -0.249986E+00  0.316564E-01  0.379120E-01
  atom #    9
   Hellmann-Feynman              :  0.253211E-01 -0.488945E-01  0.164044E+00
   Ionic forces                  :  0.000000E+00  0.000000E+00  0.000000E+00
   Multipole                     :  0.261745E-01  0.741203E-01  0.119338E+00
   Pulay + GGA                   : -0.532037E-01 -0.184392E-01 -0.855105E-01
   Van der Waals                 : -0.252160E-02  0.117321E-01  0.131113E-02
   ----------------------------------------------------------------
   Total forces(   9)            : -0.422971E-02  0.185188E-01  0.199182E+00
  atom #   10
   Hellmann-Feynman              : -0.341007E+00  0.366631E+01 -0.495450E+01
   Ionic forces                  :  0.000000E+00  0.000000E+00  0.000000E+00
   Multipole                     : -0.194348E+00 -0.321758E+00 -0.695461E-02
   Pulay + GGA                   :  0.164323E+00 -0.224772E+01  0.294783E+01
   Van der Waals                 :  0.339906E-02 -0.161874E-01  0.882665E-02
   ----------------------------------------------------------------
   Total forces(  10)            : -0.367633E+00  0.108065E+01 -0.200480E+01
  atom #   11
   Hellmann-Feynman              : -0.804736E+01 -0.107135E+02 -0.659311E+01
   Ionic forces                  :  0.000000E+00  0.000000E+00  0.000000E+00
   Multipole                     : -0.516092E+00 -0.884721E+00 -0.100027E+00
   Pulay + GGA                   :  0.757384E+01  0.106963E+02  0.539194E+01
   Van der Waals                 : -0.207562E-02 -0.463440E-02  0.137290E-01
   ----------------------------------------------------------------
   Total forces(  11)            : -0.991689E+00 -0.906580E+00 -0.128746E+01
  atom #   12
   Hellmann-Feynman              :  0.863519E+01  0.990982E+01  0.893044E+01
   Ionic forces                  :  0.000000E+00  0.000000E+00  0.000000E+00
   Multipole                     :  0.653599E+00  0.709291E-02  0.142747E+01
   Pulay + GGA                   : -0.805777E+01 -0.934228E+01 -0.779040E+01
   Van der Waals                 : -0.346680E-02 -0.125415E-01  0.205597E-02
   ----------------------------------------------------------------
   Total forces(  12)            :  0.122756E+01  0.562090E+00  0.256957E+01
  atom #   13
   Hellmann-Feynman              : -0.284178E-01 -0.824876E+00  0.933849E+00
   Ionic forces                  :  0.000000E+00  0.000000E+00  0.000000E+00
   Multipole                     : -0.606203E-01 -0.107656E+00 -0.728783E-03
   Pulay + GGA                   :  0.127782E+00  0.316362E+00 -0.119546E+00
   Van der Waals                 :  0.586303E-03  0.625208E-02 -0.346006E-02
   ----------------------------------------------------------------
   Total forces(  13)            :  0.393302E-01 -0.609918E+00  0.810115E+00

  Timings for VdW correction (Tkatchenko-Scheffler 2009 or later):
  | CPU time:        0.007 s, Wall clock time:        0.006 s.
  Removing unitary transformations (pure translations, rotations) from forces on atoms.
  Atomic forces before filtering:
  | Net force on center of mass :  -0.493733E-02 -0.584115E-02 -0.333617E-02 eV/A
  | Net torque on center of mass:   0.810673E-02 -0.132571E-02 -0.609712E-02 eV
  Atomic forces after filtering:
  | Net force on center of mass :  -0.947783E-16 -0.178406E-15 -0.535218E-15 eV/A
  | Net torque on center of mass:   0.566451E-15  0.318168E-15  0.944085E-16 eV

  Energy and forces in a compact form:
  | Total energy uncorrected      :         -0.880321911556041E+04 eV
  | Total energy corrected        :         -0.880321911556041E+04 eV  <-- do not rely on this value for anything but (periodic) metals
  | Electronic free energy        :         -0.880321911556041E+04 eV
  Total atomic forces (unitary forces cleaned) [eV/Ang]:
  |   1         -0.707792973230951E+00         -0.588921601179415E-01         -0.786229784835507E+00
  |   2          0.343079871316578E+00          0.112188631669497E+00         -0.138445814083965E+00
  |   3          0.892511318139760E+00          0.499528916234332E+00          0.922202044099720E+00
  |   4         -0.336126784402772E+00         -0.128874032402779E+00         -0.590841880584151E-01
  |   5         -0.109248047014738E+00         -0.299138607531417E+00         -0.138345156815823E+00
  |   6          0.201317655650503E+00         -0.332748112506115E+00          0.425351251320923E-01
  |   7          0.597111693179746E-01          0.279599921894934E-01         -0.169383022955259E+00
  |   8         -0.249864986421143E+00          0.319668512077900E-01          0.379554482301485E-01
  |   9         -0.409919338145621E-02          0.192958808008577E-01          0.199156215049668E+00
  |  10         -0.367011962066619E+00          0.108117696971184E+01         -0.200433273798473E+01
  |  11         -0.990901848035835E+00         -0.906264091135454E+00         -0.128681322779148E+01
  |  12          0.122823678431668E+01          0.562924189544301E+00          0.257003407745057E+01
  |  13          0.401889958120158E-01         -0.609124427664401E+00          0.810751022562977E+00

  ------------------------------------ 
  Start decomposition of the XC Energy 
  ------------------------------------ 
  X and C from original XC functional choice 
  Hartree-Fock Energy :          0.000000000 Ha              0.000000000 eV
  X Energy            :        -41.034505030 Ha          -1116.605694136 eV
  C Energy            :         -1.599923089 Ha            -43.536122358 eV
  Total XC Energy     :        -42.634428119 Ha          -1160.141816494 eV
  ------------------------------------ 
  LDA X and C from self-consistent density 
  X Energy LDA        :        -37.252844110 Ha          -1013.701464799 eV
  C Energy LDA        :         -3.138284882 Ha            -85.397076589 eV
  ------------------------------------ 
  End decomposition of the XC Energy 
  ------------------------------------ 

------------------------------------------------------------

------------------------------------------------------------------------------
  Final output of selected total energy values:

  The following output summarizes some interesting total energy values
  at the end of a run (AFTER all relaxation, molecular dynamics, etc.).

  | Total energy of the DFT / Hartree-Fock s.c.f. calculation      :          -8803.219115560 eV
  | Final zero-broadening corrected energy (caution - metals only) :          -8803.219115560 eV
  | For reference only, the value of 1 Hartree used in FHI-aims is :             27.211384500 eV

  Before relying on these values, please be sure to understand exactly which
  total energy value is referred to by a given number. Different objects may
  all carry the same name 'total energy'. Definitions:

  Total energy of the DFT / Hartree-Fock s.c.f. calculation:
  | Note that this energy does not include ANY quantities calculated after the
  | s.c.f. cycle, in particular not ANY RPA, MP2, etc. many-body perturbation terms.

  Final zero-broadening corrected energy:
  | For metallic systems only, a broadening of the occupation numbers at the Fermi
  | level can be extrapolated back to zero broadening by an electron-gas inspired
  | formula. For all systems that are not real metals, this value can be
  | meaningless and should be avoided.

------------------------------------------------------------------------------
  Methods described in the following list of references were used in this FHI-aims run.
  If you publish the results, please make sure to cite these reference if they apply.
  FHI-aims is an academic code, and for our developers (often, Ph.D. students
  and postdocs), scientific credit in the community is essential.
  Thank you for helping us!

  For any use of FHI-aims, please cite:

    Volker Blum, Ralf Gehrke, Felix Hanke, Paula Havu, Ville Havu,
    Xinguo Ren, Karsten Reuter, and Matthias Scheffler
    'Ab initio molecular simulations with numeric atom-centered orbitals'
    Computer Physics Communications 180, 2175-2196 (2009)
    http://dx.doi.org/10.1016/j.cpc.2009.06.022


  The scalable eigensolver library ELPA was used in your run.
  ELPA is essential especially for large systems on hundreds or thousands of CPUs.
  For ELPA, please cite:

    Andreas Marek, Volker Blum, Rainer Johanni, Ville Havu, Bruno Lang,
    Thomas Auckenthaler, Alexander Heinecke, Hans-Joachim Bungartz, and Hermann Lederer,
    'The ELPA Library - Scalable Parallel Eigenvalue Solutions
    for Electronic Structure Theory and Computational Science'
    The Journal of Physics: Condensed Matter 26, 213201 (2014).
    http://dx.doi.org/10.1088/0953-8984/26/21/213201


  The ELSI infrastructure was used in your run to solve the Kohn-Sham electronic structure.
  Please check out http://elsi-interchange.org to learn more.
  If scalability is important for your project, please acknowledge ELSI by citing:

    V. W-z. Yu, F. Corsetti, A. Garcia, W. P. Huhn, M. Jacquelin, W. Jia,
    B. Lange, L. Lin, J. Lu, W. Mi, A. Seifitokaldani, A. Vazquez-Mayagoitia,
    C. Yang, H. Yang, and V. Blum
    'ELSI: A unified software interface for Kohn-Sham electronic structure solvers'
    Computer Physics Communications 222, 267-285 (2018).
    http://dx.doi.org/10.1016/j.cpc.2017.09.007


  For the real-space grid partitioning and parallelization used in this calculation, please cite:

    Ville Havu, Volker Blum, Paula Havu, and Matthias Scheffler,
    'Efficient O(N) integration for all-electron electronic structure calculation'
    'using numerically tabulated basis functions'
    Journal of Computational Physics 228, 8367-8379 (2009).
    http://dx.doi.org/10.1016/j.jcp.2009.08.008

  Of course, there are many other important community references, e.g., those cited in the
  above references. Our list is limited to references that describe implementations in the
  FHI-aims code. The reason is purely practical (length of this list) - please credit others as well.

------------------------------------------------------------
          Leaving FHI-aims.
          Date     :  20200601, Time     :  001120.849

          Computational steps:
          | Number of self-consistency cycles          :           15
          | Number of SCF (re)initializations          :            1

          Detailed time accounting                     :  max(cpu_time)    wall_clock(cpu1)
          | Total time                                 :        1.599 s           1.651 s
          | Preparation time                           :        0.164 s           0.166 s
          | Boundary condition initalization           :        0.000 s           0.000 s
          | Grid partitioning                          :        0.020 s           0.020 s
          | Preloading free-atom quantities on grid    :        0.003 s           0.002 s
          | Free-atom superposition energy             :        0.005 s           0.005 s
          | Total time for integrations                :        0.459 s           0.459 s
          | Total time for solution of K.-S. equations :        0.062 s           0.063 s
          | Total time for density & force components  :        0.375 s           0.356 s
          | Total time for mixing                      :        0.017 s           0.014 s
          | Total time for Hartree multipole update    :        0.018 s           0.021 s
          | Total time for Hartree multipole sum       :        0.405 s           0.405 s
          | Total time for total energy evaluation     :        0.003 s           0.003 s
          | Total time for vdW correction              :        0.007 s           0.006 s

          Partial memory accounting:
          | Residual value for overall tracked memory usage across tasks :           0.000 MB (should be 0.000 MB)
          | Peak values for overall tracked memory usage (after allocating hessian_basis_wave):
          |   Minimum:        1.954 MB (on task 20)
          |   Maximum:        1.998 MB (on task  1)
          |   Average:        1.976 MB
          | Largest tracked array allocation (hessian_basis_wave):
          |   Minimum:        1.000 MB (on task  6)
          |   Maximum:        1.017 MB (on task  1)
          |   Average:        1.008 MB
          Note:  These values currently only include a subset of arrays which are explicitly tracked.
          The "true" memory usage will be greater.

          Have a nice day.
------------------------------------------------------------
