  MPI-parallelism will be employed.
------------------------------------------------------------
          Invoking FHI-aims ...
          Version 171221_1
          Compiled on 2019/09/09 at 14:39:39 on host puhti-login2.bullx.

          When using FHI-aims, please cite the following reference:

          Volker Blum, Ralf Gehrke, Felix Hanke, Paula Havu,
          Ville Havu, Xinguo Ren, Karsten Reuter, and Matthias Scheffler,
          'Ab Initio Molecular Simulations with Numeric Atom-Centered Orbitals',
          Computer Physics Communications 180, 2175-2196 (2009)

          For any questions about FHI-aims, please visit the aimsclub website
          with its forums and wiki. Contributions to both the forums and the
          wiki are warmly encouraged - they are for you, and everyone is welcome there.

------------------------------------------------------------



  Date     :  20200805, Time     :  182613.543
  Time zero on CPU 1             :   0.118630000000000E-01  s.
  Internal wall clock time zero  :           365883973.543  s.

  FHI-aims created a unique identifier for this run for later identification
  aims_uuid : CF7D730A-39FA-44CF-AA32-8C2377945C51

  Using        1 parallel tasks.
  Task        0 on host r13c16.bullx reporting.

  Performing system and environment tests:
  | Environment variable OMP_NUM_THREADS correctly set to 1.
  | Stacksize not measured: no C compiler
  | Checking for scalapack...
  | Testing pdtran()...
  | All pdtran() tests passed.

  Obtaining array dimensions for all initial allocations:
  
  -----------------------------------------------------------------------
  Parsing control.in (first pass over file, find array dimensions only).
  The contents of control.in will be repeated verbatim below
  unless switched off by setting 'verbatim_writeout .false.' .
  in the first line of control.in .
  -----------------------------------------------------------------------
  
  #########################################################################################
  #
  #  Volker Blum, FHI 2009 : Test run input file control.in for simple H2O
  #
  #########################################################################################
  #
  #  Physical model
  #
    xc                 pbe
    vdw_correction_hirshfeld
    spin               none
    relativistic       none
    charge             0.
  #
  #  SCF convergence
  #
    occupation_type    gaussian 0.01
    mixer              pulay
      n_max_pulay        10
      charge_mix_param   0.2
    sc_accuracy_rho    1E-5
    sc_accuracy_eev    1E-3
    sc_accuracy_etot   1E-6
    sc_accuracy_forces 1E-4
    sc_iter_limit      100
  #
  #  Relaxation
  #
  #  relax_geometry   bfgs 1.e-3
  #
  ################################################################################
  #
  #  FHI-aims code project
  #  VB, Fritz-Haber Institut, 2009
  #
  #  Suggested "light" defaults for H atom (to be pasted into control.in file)
  #  Be sure to double-check any results obtained with these settings for post-processing,
  #  e.g., with the "tight" defaults and larger basis sets.
  #
  ################################################################################
    species        H
  #     global species definitions
      nucleus             1
      mass                1.00794
  #
      l_hartree           4
  #
      cut_pot             3.5  1.5  1.0
      basis_dep_cutoff    1e-4
  #
      radial_base         24 5.0
      radial_multiplier   1
      angular_grids       specified
        division   0.2421   50
        division   0.3822  110
        division   0.4799  194
        division   0.5341  302
  #      division   0.5626  434
  #      division   0.5922  590
  #      division   0.6542  770
  #      division   0.6868 1202
  #      outer_grid  770
        outer_grid  302
  ################################################################################
  #
  #  Definition of "minimal" basis
  #
  ################################################################################
  #     valence basis states
      valence      1  s   1.
  #     ion occupancy
      ion_occ      1  s   0.5
  ################################################################################
  #
  #  Suggested additional basis functions. For production calculations,
  #  uncomment them one after another (the most important basis functions are
  #  listed first).
  #
  #  Basis constructed for dimers: 0.5 A, 0.7 A, 1.0 A, 1.5 A, 2.5 A
  #
  ################################################################################
  #  "First tier" - improvements: -1014.90 meV to -62.69 meV
       hydro 2 s 2.1
       hydro 2 p 3.5
  #  "Second tier" - improvements: -12.89 meV to -1.83 meV
  #     hydro 1 s 0.85
  #     hydro 2 p 3.7
  #     hydro 2 s 1.2
  #     hydro 3 d 7
  #  "Third tier" - improvements: -0.25 meV to -0.12 meV
  #     hydro 4 f 11.2
  #     hydro 3 p 4.8
  #     hydro 4 d 9
  #     hydro 3 s 3.2
  ################################################################################
  #
  #  FHI-aims code project
  #  VB, Fritz-Haber Institut, 2009
  #
  #  Suggested "light" defaults for C atom (to be pasted into control.in file)
  #  Be sure to double-check any results obtained with these settings for post-processing,
  #  e.g., with the "tight" defaults and larger basis sets.
  #
  ################################################################################
    species        C
  #     global species definitions
      nucleus             6
      mass                12.0107
  #
      l_hartree           4
  #
      cut_pot             3.5  1.5  1.0
      basis_dep_cutoff    1e-4
  #
      radial_base         34 5.0
      radial_multiplier   1
      angular_grids specified
        division   0.3326   50
        division   0.5710  110
        division   0.7727  194
        division   0.8772  302
  #      division   0.9334  434
  #      division   0.9625  590
  #      division   0.9924  770
  #      division   1.0230  974
  #      division   1.4589 1202
  #     outer_grid  974
       outer_grid 302
  ################################################################################
  #
  #  Definition of "minimal" basis
  #
  ################################################################################
  #     valence basis states
      valence      2  s   2.
      valence      2  p   2.
  #     ion occupancy
      ion_occ      2  s   1.
      ion_occ      2  p   1.
  ################################################################################
  #
  #  Suggested additional basis functions. For production calculations,
  #  uncomment them one after another (the most important basis functions are
  #  listed first).
  #
  #  Constructed for dimers: 1.0 A, 1.25 A, 1.5 A, 2.0 A, 3.0 A
  #
  ################################################################################
  #  "First tier" - improvements: -1214.57 meV to -155.61 meV
       hydro 2 p 1.7
       hydro 3 d 6
       hydro 2 s 4.9
  #  "Second tier" - improvements: -67.75 meV to -5.23 meV
  #     hydro 4 f 9.8
  #     hydro 3 p 5.2
  #     hydro 3 s 4.3
  #     hydro 5 g 14.4
  #     hydro 3 d 6.2
  #  "Third tier" - improvements: -2.43 meV to -0.60 meV
  #     hydro 2 p 5.6
  #     hydro 2 s 1.4
  #     hydro 3 d 4.9
  #     hydro 4 f 11.2
  #  "Fourth tier" - improvements: -0.39 meV to -0.18 meV
  #     hydro 2 p 2.1
  #     hydro 5 g 16.4
  #     hydro 4 d 13.2
  #     hydro 3 s 13.6
  #     hydro 4 f 17.6
  #  Further basis functions - improvements: -0.08 meV and below
  #     hydro 3 s 2
  #     hydro 3 p 6
  #     hydro 4 d 20
  ################################################################################
  #
  #  FHI-aims code project
  #  VB, Fritz-Haber Institut, 2009
  #
  #  Suggested "light" defaults for N atom (to be pasted into control.in file)
  #  Be sure to double-check any results obtained with these settings for post-processing,
  #  e.g., with the "tight" defaults and larger basis sets.
  #
  ################################################################################
    species        N
  #     global species definitions
      nucleus             7
      mass                14.0067
  #
      l_hartree           4
  #
      cut_pot             3.5  1.5  1.0
      basis_dep_cutoff    1e-4
  #
      radial_base         35 5.0
      radial_multiplier   1
      angular_grids       specified
        division   0.2599   50
        division   0.4601  110
        division   0.5885  194
        division   0.6503  302
  #      division   0.6939  434
  #      division   0.7396  590
  #      division   0.7632  770
  #      division   0.8122  974
  #      division   1.1604 1202
  #      outer_grid  974
        outer_grid  302
  ################################################################################
  #
  #  Definition of "minimal" basis
  #
  ################################################################################
  #     valence basis states
      valence      2  s   2.
      valence      2  p   3.
  #     ion occupancy
      ion_occ      2  s   1.
      ion_occ      2  p   2.
  ################################################################################
  #
  #  Suggested additional basis functions. For production calculations,
  #  uncomment them one after another (the most important basis functions are
  #  listed first).
  #
  #  Constructed for dimers: 1.0 A, 1.1 A, 1.5 A, 2.0 A, 3.0 A
  #
  ################################################################################
  #  "First tier" - improvements: -1193.42 meV to -220.60 meV
       hydro 2 p 1.8
       hydro 3 d 6.8
       hydro 3 s 5.8
  #  "Second tier" - improvements: -80.21 meV to -6.86 meV
  #     hydro 4 f 10.8
  #     hydro 3 p 5.8
  #     hydro 1 s 0.8
  #     hydro 5 g 16
  #     hydro 3 d 4.9
  #  "Third tier" - improvements: -4.29 meV to -0.53 meV
  #     hydro 3 s 16
  #     ionic 2 p auto
  #     hydro 3 d 6.6
  #     hydro 4 f 11.6
  #  "Fourth tier" - improvements: -0.75 meV to -0.25 meV
  #     hydro 2 p 4.5
  #     hydro 2 s 2.4
  #     hydro 5 g 14.4
  #     hydro 4 d 14.4
  #     hydro 4 f 16.8
  # Further basis functions - -0.21 meV and below
  #     hydro 3 p 14.8
  #     hydro 3 s 4.4
  #     hydro 3 d 19.6
  #     hydro 5 g 12.8
  ################################################################################
  #
  #  FHI-aims code project
  #  VB, Fritz-Haber Institut, 2009
  #
  #  Suggested "light" defaults for O atom (to be pasted into control.in file)
  #  Be sure to double-check any results obtained with these settings for post-processing,
  #  e.g., with the "tight" defaults and larger basis sets.
  #
  ################################################################################
    species        O
  #     global species definitions
      nucleus             8
      mass                15.9994
  #
      l_hartree           4
  #
      cut_pot             3.5  1.5  1.0
      basis_dep_cutoff    1e-4
  #
      radial_base         36 5.0
      radial_multiplier   1
       angular_grids specified
        division   0.2659   50
        division   0.4451  110
        division   0.6052  194
        division   0.7543  302
  #      division   0.8014  434
  #      division   0.8507  590
  #      division   0.8762  770
  #      division   0.9023  974
  #      division   1.2339 1202
  #      outer_grid 974
        outer_grid 302
  ################################################################################
  #
  #  Definition of "minimal" basis
  #
  ################################################################################
  #     valence basis states
      valence      2  s   2.
      valence      2  p   4.
  #     ion occupancy
      ion_occ      2  s   1.
      ion_occ      2  p   3.
  ################################################################################
  #
  #  Suggested additional basis functions. For production calculations,
  #  uncomment them one after another (the most important basis functions are
  #  listed first).
  #
  #  Constructed for dimers: 1.0 A, 1.208 A, 1.5 A, 2.0 A, 3.0 A
  #
  ################################################################################
  #  "First tier" - improvements: -699.05 meV to -159.38 meV
       hydro 2 p 1.8
       hydro 3 d 7.6
       hydro 3 s 6.4
  #  "Second tier" - improvements: -49.91 meV to -5.39 meV
  #     hydro 4 f 11.6
  #     hydro 3 p 6.2
  #     hydro 3 d 5.6
  #     hydro 5 g 17.6
  #     hydro 1 s 0.75
  #  "Third tier" - improvements: -2.83 meV to -0.50 meV
  #     ionic 2 p auto
  #     hydro 4 f 10.8
  #     hydro 4 d 4.7
  #     hydro 2 s 6.8
  #  "Fourth tier" - improvements: -0.40 meV to -0.12 meV
  #     hydro 3 p 5
  #     hydro 3 s 3.3
  #     hydro 5 g 15.6
  #     hydro 4 f 17.6
  #     hydro 4 d 14
  # Further basis functions - -0.08 meV and below
  #     hydro 3 s 2.1
  #     hydro 4 d 11.6
  #     hydro 3 p 16
  #     hydro 2 s 17.2
  
  -----------------------------------------------------------------------
  Completed first pass over input file control.in .
  -----------------------------------------------------------------------
  
  
  -----------------------------------------------------------------------
  Parsing geometry.in (first pass over file, find array dimensions only).
  The contents of geometry.in will be repeated verbatim below
  unless switched off by setting 'verbatim_writeout .false.' .
  in the first line of geometry.in .
  -----------------------------------------------------------------------
  
  atom  0.00000 0.00000 0.00000 C
  atom  1.09300 0.00000 0.00000 H
  atom  -0.47961 0.00000 -1.41207 N
  atom  0.22999 0.44089 -1.99852 H
  atom  -0.63045 -0.96278 -1.70604 H
  atom  -0.49584 1.26211 0.72868 C
  atom  -1.58789 1.28919 0.74431 H
  atom  -0.13407 1.27425 1.75947 H
  atom  -0.13407 2.16087 0.22380 H
  atom  -0.39425 -1.28861 0.74398 C
  atom  -0.10189 -1.56493 1.88303 O
  atom  -1.10210 -2.13717 0.06896 O
  atom  -1.97524 -1.91622 0.43472 H
  
  -----------------------------------------------------------------------
  Completed first pass over input file geometry.in .
  -----------------------------------------------------------------------
  

  Basic array size parameters:
  | Number of species                 :        4
  | Number of atoms                   :       13
  | Max. basis fn. angular momentum   :        2
  | Max. atomic/ionic basis occupied n:        2
  | Max. number of basis fn. types    :        2
  | Max. radial fns per species/type  :        3
  | Max. logarithmic grid size        :     1301
  | Max. radial integration grid size :       36
  | Max. angular integration grid size:      302
  | Max. angular grid division number :        8
  | Radial grid for Hartree potential :     1301
  | Number of spin channels           :        1

------------------------------------------------------------
          Reading file control.in.
------------------------------------------------------------
  XC: Using PBE gradient-corrected functionals.
  Spin treatment: No spin polarisation.
  Non-relativistic treatment of kinetic energy.
  Charge =   0.000000E+00: Neutral system requested explicitly.
  Occupation type: Gaussian broadening, width =   0.100000E-01 eV.
  Using pulay charge density mixing.
  Pulay mixing - number of memorized iterations:   10
  Charge density mixing - mixing parameter:     0.2000
  Convergence accuracy of self-consistent charge density:  0.1000E-04
  Convergence accuracy of sum of eigenvalues:  0.1000E-02
  Convergence accuracy of total energy:  0.1000E-05
  Convergence accuracy of forces:  0.1000E-03
  Maximum number of s.-c. iterations  :   100
 
  Reading configuration options for species H                   .
  | Found nuclear charge :   1.0000
  | Found atomic mass :    1.00794000000000      amu
  | Found l_max for Hartree potential  :   4
  | Found cutoff potl. onset [A], width [A], scale factor :    3.50000    1.50000    1.00000
  | Threshold for basis-dependent cutoff potential is   0.100000E-03
  | Found data for basic radial integration grid :    24 points, outermost radius =    5.000 A
  | Found multiplier for basic radial grid :   1
  | Found angular grid specification: user-specified.
  | Specified grid contains     5 separate shells.
  | Check grid settings after all constraints further below.
  | Found free-atom valence shell :  1 s   1.000
  | No ionic wave fns used. Skipping ion_occ.
  | Found hydrogenic basis function :  2 s   2.100
  | Found hydrogenic basis function :  2 p   3.500
  Species H                   : Missing cutoff potential type.
  Defaulting to exp(1/x)/(1-x)^2 type cutoff potential.
  Species H : No 'logarithmic' tag. Using default grid for free atom:
  | Default logarithmic grid data [bohr] : 0.1000E-03 0.1000E+03 0.1012E+01
  Species H : On-site basis accuracy parameter (for Gram-Schmidt orthonormalisation) not specified.
  Using default value basis_acc =  0.1000000E-03.
  Species H                   : Using default innermost maximum threshold i_radial=  2 for radial functions.
  Species H                   : Default cutoff onset for free atom density etc. : 0.35000000E+01 AA.
  Species H                   : Basic radial grid will be enhanced according to radial_multiplier =   1, to contain    24 grid points.
 
  Reading configuration options for species C                   .
  | Found nuclear charge :   6.0000
  | Found atomic mass :    12.0107000000000      amu
  | Found l_max for Hartree potential  :   4
  | Found cutoff potl. onset [A], width [A], scale factor :    3.50000    1.50000    1.00000
  | Threshold for basis-dependent cutoff potential is   0.100000E-03
  | Found data for basic radial integration grid :    34 points, outermost radius =    5.000 A
  | Found multiplier for basic radial grid :   1
  | Found angular grid specification: user-specified.
  | Specified grid contains     5 separate shells.
  | Check grid settings after all constraints further below.
  | Found free-atom valence shell :  2 s   2.000
  | Found free-atom valence shell :  2 p   2.000
  | No ionic wave fns used. Skipping ion_occ.
  | No ionic wave fns used. Skipping ion_occ.
  | Found hydrogenic basis function :  2 p   1.700
  | Found hydrogenic basis function :  3 d   6.000
  | Found hydrogenic basis function :  2 s   4.900
  Species C                   : Missing cutoff potential type.
  Defaulting to exp(1/x)/(1-x)^2 type cutoff potential.
  Species C : No 'logarithmic' tag. Using default grid for free atom:
  | Default logarithmic grid data [bohr] : 0.1000E-03 0.1000E+03 0.1012E+01
  Species C : On-site basis accuracy parameter (for Gram-Schmidt orthonormalisation) not specified.
  Using default value basis_acc =  0.1000000E-03.
  Species C                   : Using default innermost maximum threshold i_radial=  2 for radial functions.
  Species C                   : Default cutoff onset for free atom density etc. : 0.35000000E+01 AA.
  Species C                   : Basic radial grid will be enhanced according to radial_multiplier =   1, to contain    34 grid points.
 
  Reading configuration options for species N                   .
  | Found nuclear charge :   7.0000
  | Found atomic mass :    14.0067000000000      amu
  | Found l_max for Hartree potential  :   4
  | Found cutoff potl. onset [A], width [A], scale factor :    3.50000    1.50000    1.00000
  | Threshold for basis-dependent cutoff potential is   0.100000E-03
  | Found data for basic radial integration grid :    35 points, outermost radius =    5.000 A
  | Found multiplier for basic radial grid :   1
  | Found angular grid specification: user-specified.
  | Specified grid contains     5 separate shells.
  | Check grid settings after all constraints further below.
  | Found free-atom valence shell :  2 s   2.000
  | Found free-atom valence shell :  2 p   3.000
  | No ionic wave fns used. Skipping ion_occ.
  | No ionic wave fns used. Skipping ion_occ.
  | Found hydrogenic basis function :  2 p   1.800
  | Found hydrogenic basis function :  3 d   6.800
  | Found hydrogenic basis function :  3 s   5.800
  Species N                   : Missing cutoff potential type.
  Defaulting to exp(1/x)/(1-x)^2 type cutoff potential.
  Species N : No 'logarithmic' tag. Using default grid for free atom:
  | Default logarithmic grid data [bohr] : 0.1000E-03 0.1000E+03 0.1012E+01
  Species N : On-site basis accuracy parameter (for Gram-Schmidt orthonormalisation) not specified.
  Using default value basis_acc =  0.1000000E-03.
  Species N                   : Using default innermost maximum threshold i_radial=  2 for radial functions.
  Species N                   : Default cutoff onset for free atom density etc. : 0.35000000E+01 AA.
  Species N                   : Basic radial grid will be enhanced according to radial_multiplier =   1, to contain    35 grid points.
 
  Reading configuration options for species O                   .
  | Found nuclear charge :   8.0000
  | Found atomic mass :    15.9994000000000      amu
  | Found l_max for Hartree potential  :   4
  | Found cutoff potl. onset [A], width [A], scale factor :    3.50000    1.50000    1.00000
  | Threshold for basis-dependent cutoff potential is   0.100000E-03
  | Found data for basic radial integration grid :    36 points, outermost radius =    5.000 A
  | Found multiplier for basic radial grid :   1
  | Found angular grid specification: user-specified.
  | Specified grid contains     5 separate shells.
  | Check grid settings after all constraints further below.
  | Found free-atom valence shell :  2 s   2.000
  | Found free-atom valence shell :  2 p   4.000
  | No ionic wave fns used. Skipping ion_occ.
  | No ionic wave fns used. Skipping ion_occ.
  | Found hydrogenic basis function :  2 p   1.800
  | Found hydrogenic basis function :  3 d   7.600
  | Found hydrogenic basis function :  3 s   6.400
  Species O                   : Missing cutoff potential type.
  Defaulting to exp(1/x)/(1-x)^2 type cutoff potential.
  Species O : No 'logarithmic' tag. Using default grid for free atom:
  | Default logarithmic grid data [bohr] : 0.1000E-03 0.1000E+03 0.1012E+01
  Species O : On-site basis accuracy parameter (for Gram-Schmidt orthonormalisation) not specified.
  Using default value basis_acc =  0.1000000E-03.
  Species O                   : Using default innermost maximum threshold i_radial=  2 for radial functions.
  Species O                   : Default cutoff onset for free atom density etc. : 0.35000000E+01 AA.
  Species O                   : Basic radial grid will be enhanced according to radial_multiplier =   1, to contain    36 grid points.
 
  Finished reading input file 'control.in'. Consistency checks are next.
 
  MPI_IN_PLACE appears to work with this MPI implementation.
  | Keeping use_mpi_in_place .true. (see manual).
  Target number of points in a grid batch is not set. Defaulting to  100
  Method for grid partitioning is not set. Defaulting to parallel hash+maxmin partitioning.
  Batch size limit is not set. Defaulting to    200
  By default, will store active basis functions for each batch.
  If in need of memory, prune_basis_once .false. can be used to disable this option.
  communication_type for Hartree potential was not specified.
  Defaulting to calc_hartree .
  Pulay mixer: Number of initial linear mixing iterations not set.
  Defaulting to    0 iterations.
  Work space size for distributed Hartree potential not set.
  Defaulting to   0.200000E+03 MB.
  Algorithm-dependent basis array size parameters:
  | n_max_pulay                         :       10
  Presetting      1001 iterations before the initial mixing cycle
  is restarted anyway using the sc_init_iter criterion / keyword.
  Presetting a factor      1.000 between actual scf density residual
  and density convergence criterion sc_accuracy_rho below which sc_init_iter
  takes no effect.
  Geometry relaxation not requested: no relaxation will be performed.
  Handling of forces: Unphysical translation and rotation will be removed from forces.
  No accuracy limit for integral partition fn. given. Defaulting to  0.1000E-14.
  No threshold value for u(r) in integrations given. Defaulting to  0.1000E-05.
  No accuracy for occupation numbers given. Defaulting to  0.1000E-12.
  No threshold value for occupation numbers given. Defaulting to  0.0000E+00.
  No accuracy for fermi level given. Defaulting to  0.1000E-19.
  Maximum # of iterations to find E_F not set. Defaulting to  200.
  Preferred method for the eigenvalue solver ('KS_method') not specified in 'control.in'.
  Defaulting to serial version, 'lapack_fast'.
  Will not use alltoall communication since running on < 1024 CPUs.
  Threshold for basis singularities not set.
  Default threshold for basis singularities:  0.1000E-04
  partition_type (choice of integration weights) for integrals was not specified.
  | Using a version of the partition function of Stratmann and coworkers ('stratmann_smoother').
  | At each grid point, the set of atoms used to build the partition table is smoothly restricted to
  | only those atoms whose free-atom density would be non-zero at that grid point.
  Partitioning for Hartree potential was not defined. Using partition_type for integrals.
  | Adjusted default value of keyword multip_moments_threshold to:       0.10000000E-11
  | This value may affect high angular momentum components of the Hartree potential in periodic systems.
  No q(lm)/r^(l+1) cutoff set for long-range Hartree potential.
  | Using default value of  0.100000E-09 .
  | Verify using the multipole_threshold keyword.
  Defaulting to new monopole extrapolation.
  Density update method: automatic selection selected.
------------------------------------------------------------


------------------------------------------------------------
          Reading geometry description geometry.in.
------------------------------------------------------------
  Input structure read successfully.
  The structure contains       13 atoms,  and a total of         48.000 electrons.

  Input geometry:
  | No unit cell requested.
  | Atomic structure:
  |       Atom                x [A]            y [A]            z [A]
  |    1: Species C             0.00000000        0.00000000        0.00000000
  |    2: Species H             1.09300000        0.00000000        0.00000000
  |    3: Species N            -0.47961000        0.00000000       -1.41207000
  |    4: Species H             0.22999000        0.44089000       -1.99852000
  |    5: Species H            -0.63045000       -0.96278000       -1.70604000
  |    6: Species C            -0.49584000        1.26211000        0.72868000
  |    7: Species H            -1.58789000        1.28919000        0.74431000
  |    8: Species H            -0.13407000        1.27425000        1.75947000
  |    9: Species H            -0.13407000        2.16087000        0.22380000
  |   10: Species C            -0.39425000       -1.28861000        0.74398000
  |   11: Species O            -0.10189000       -1.56493000        1.88303000
  |   12: Species O            -1.10210000       -2.13717000        0.06896000
  |   13: Species H            -1.97524000       -1.91622000        0.43472000
  |

  | The smallest distance between any two atoms is         0.97209708 AA.
  |
  | The first atom of this pair is atom number                     12 .
  | The second atom of this pair is atom number                    13 .

  Number of empty states per atom not set in control.in - providing a guess from actual geometry.
  | Total number of empty states used during s.c.f. cycle:       29
  If you use a very high smearing, use empty_states (per atom!) in control.in to increase this value.

  Structure-dependent array size parameters: 
  | Maximum number of distinct radial functions  :       21
  | Maximum number of basis functions            :      119
  | Number of Kohn-Sham states (occupied + empty):       53
------------------------------------------------------------

------------------------------------------------------------
          Preparing all fixed parts of the calculation.
------------------------------------------------------------
  Determining machine precision:
    2.225073858507201E-308
  Setting up grids for atomic and cluster calculations.

  Creating wave function, potential, and density for free atoms.

  Species: H

  List of occupied orbitals and eigenvalues:
    n    l              occ      energy [Ha]    energy [eV]
    1    0           1.0000        -0.237589        -6.4651


  Species: C

  List of occupied orbitals and eigenvalues:
    n    l              occ      energy [Ha]    energy [eV]
    1    0           2.0000       -10.038835      -273.1706
    2    0           2.0000        -0.502696       -13.6791
    2    1           2.0000        -0.191971        -5.2238


  Species: N

  List of occupied orbitals and eigenvalues:
    n    l              occ      energy [Ha]    energy [eV]
    1    0           2.0000       -14.128000      -384.4424
    2    0           2.0000        -0.681077       -18.5330
    2    1           3.0000        -0.259788        -7.0692


  Species: O

  List of occupied orbitals and eigenvalues:
    n    l              occ      energy [Ha]    energy [eV]
    1    0           2.0000       -18.898188      -514.2459
    2    0           2.0000        -0.878505       -23.9053
    2    1           4.0000        -0.331779        -9.0282

  Creating fixed part of basis set: Ionic, confined, hydrogenic.
 
  H                    hydrogenic:
 
  List of hydrogenic basis orbitals: 
    n    l      effective z      eigenvalue [eV]  inner max. [A]     outer max. [A]     outer radius [A]   
    2    0         2.100000       -14.9728           0.193243           1.317208           4.583499
    2    1         3.500000       -41.6669           0.602369           0.602369           3.723403
 
 
  C                    hydrogenic:
 
  List of hydrogenic basis orbitals: 
    n    l      effective z      eigenvalue [eV]  inner max. [A]     outer max. [A]     outer radius [A]   
    2    1         1.700000        -9.7616           1.230570           1.230570           4.607917
    3    2         6.000000       -54.4224           0.792453           0.792453           3.883070
    2    0         4.900000       -81.6679           0.082559           0.562749           3.078220
 
 
  N                    hydrogenic:
 
  List of hydrogenic basis orbitals: 
    n    l      effective z      eigenvalue [eV]  inner max. [A]     outer max. [A]     outer radius [A]   
    2    1         1.800000       -10.9749           1.177451           1.177451           4.573712
    3    2         6.800000       -69.9026           0.704619           0.704619           3.538137
    3    0         5.800000       -50.8545           0.067388           1.191934           4.250239
 
 
  O                    hydrogenic:
 
  List of hydrogenic basis orbitals: 
    n    l      effective z      eigenvalue [eV]  inner max. [A]     outer max. [A]     outer radius [A]   
    2    1         1.800000       -10.9749           1.164242           1.164242           4.578029
    3    2         7.600000       -87.3180           0.624125           0.624125           3.251020
    3    0         6.400000       -61.9207           0.061167           1.081902           4.001998
 

  Adding cutoff potential to free-atom effective potential.
  Creating atomic-like basis functions for current effective potential.

  Species H                   :

  List of atomic basis orbitals and eigenvalues:
    n    l      energy [Ha]    energy [eV]    outer radius [A]
    1    0        -0.237589        -6.4651       4.527807


  Species C                   :

  List of atomic basis orbitals and eigenvalues:
    n    l      energy [Ha]    energy [eV]    outer radius [A]
    1    0       -10.038835      -273.1706       1.934409
    2    0        -0.502696       -13.6791       4.496620
    2    1        -0.191971        -5.2238       4.551928


  Species N                   :

  List of atomic basis orbitals and eigenvalues:
    n    l      energy [Ha]    energy [eV]    outer radius [A]
    1    0       -14.128000      -384.4424       1.637919
    2    0        -0.681077       -18.5330       4.463241
    2    1        -0.259788        -7.0692       4.518138


  Species O                   :

  List of atomic basis orbitals and eigenvalues:
    n    l      energy [Ha]    energy [eV]    outer radius [A]
    1    0       -18.898188      -514.2459       1.415765
    2    0        -0.878505       -23.9053       4.413171
    2    1        -0.331779        -9.0282       4.522403

  Assembling full basis from fixed parts.
  | Species H :   atomic orbital   1 s accepted.
  | Species H :    hydro orbital   2 s accepted.
  | Species H :    hydro orbital   2 p accepted.
  | Species C :   atomic orbital   1 s accepted.
  | Species C :    hydro orbital   2 s accepted.
  | Species C :   atomic orbital   2 s accepted.
  | Species C :   atomic orbital   2 p accepted.
  | Species C :    hydro orbital   2 p accepted.
  | Species C :    hydro orbital   3 d accepted.
  | Species N :   atomic orbital   1 s accepted.
  | Species N :    hydro orbital   3 s accepted.
  | Species N :   atomic orbital   2 s accepted.
  | Species N :   atomic orbital   2 p accepted.
  | Species N :    hydro orbital   2 p accepted.
  | Species N :    hydro orbital   3 d accepted.
  | Species O :   atomic orbital   1 s accepted.
  | Species O :    hydro orbital   3 s accepted.
  | Species O :   atomic orbital   2 s accepted.
  | Species O :   atomic orbital   2 p accepted.
  | Species O :    hydro orbital   2 p accepted.
  | Species O :    hydro orbital   3 d accepted.
 
  Basis size parameters after reduction:
  | Total number of radial functions:       21
  | Total number of basis functions :      119
 
  Per-task memory consumption for arrays in subroutine allocate_ext:
  |           5.250512MB.
  Testing on-site integration grid accuracy.
  |  Species  Function  <phi|h_atom|phi> (log., in eV)  <phi|h_atom|phi> (rad., in eV)
           1        1                 -6.4663192853                 -6.4651273558
           1        2                 13.7111246313                 13.7170609718
           1        3                 25.2673269279                 25.2674696378
           2        4               -273.1705927641               -273.1705631568
           2        5                -10.7109323383                -10.7107120029
           2        6                 17.4381822266                 17.4352413244
           2        7                 -5.2255326521                 -5.2270484734
           2        8                  8.6835629259                  8.6603288385
           2        9                 27.4952418996                 27.4953360207
           3       10               -384.4424306495               -384.4423701208
           3       11                 12.5842251816                 12.5842222903
           3       12                -15.7264628251                -15.7264433455
           3       13                 -7.0696854293                 -7.0701769954
           3       14                  8.8090390882                  8.7901077751
           3       15                 35.9586762123                 35.9588528632
           4       16               -514.2458688638               -514.2457643834
           4       17                 15.1795651126                 15.1795290741
           4       18                -21.5359799773                -21.5360846186
           4       19                 -9.0283069236                 -9.0284644067
           4       20                  8.3027758564                  8.2834874195
           4       21                 45.8339351984                 45.8338762259

  Preparing densities etc. for the partition functions (integrals / Hartree potential).

  Preparations completed.
  max(cpu_time)          :      0.147 s.
  Wall clock time (cpu1) :      0.148 s.
------------------------------------------------------------

------------------------------------------------------------
          Begin self-consistency loop: Initialization.

          Date     :  20200805, Time     :  182613.709
------------------------------------------------------------

  Initializing index lists of integration centers etc. from given atomic structure:
  | Number of centers in hartree potential         :        13
  | Number of centers in hartree multipole         :        13
  | Number of centers in electron density summation:        13
  | Number of centers in basis integrals           :        13
  | Number of centers in integrals                 :        13
  | Number of centers in hamiltonian               :        13
  Partitioning the integration grid into batches with parallel hashing+maxmin method.
  | Number of batches:      953
  | Maximal batch size:     139
  | Minimal batch size:      66
  | Average batch size:      73.081
  | Standard deviation of batch sizes:      17.877

  Integration load balanced across     1 MPI tasks.
  Work distribution over tasks is as follows:
  Task     0 has      69646 integration points.
  Initializing partition tables, free-atom densities, potentials, etc. across the integration grid (initialize_grid_storage).
  | initialize_grid_storage: Actual outermost partition radius vs. multipole_radius_free
  | (-- VB: in principle, multipole_radius_free should be larger, hence this output)
  | Species        1: Confinement radius =              4.999999999999999 AA, multipole_radius_free =              5.054417573612229 AA.
  | Species        1: outer_partition_radius set to              5.054417573612229 AA .
  | Species        2: Confinement radius =              4.999999999999999 AA, multipole_radius_free =              5.019602836301480 AA.
  | Species        2: outer_partition_radius set to              5.019602836301480 AA .
  | Species        3: Confinement radius =              4.999999999999999 AA, multipole_radius_free =              5.043624274424571 AA.
  | Species        3: outer_partition_radius set to              5.043624274424571 AA .
  | Species        4: Confinement radius =              4.999999999999999 AA, multipole_radius_free =              5.048384829883283 AA.
  | Species        4: outer_partition_radius set to              5.048384829883283 AA .
  | Original list of interatomic distances with          13 x         13 entries is created.
  | Net number of integration points:    69646
  | of which are non-zero points    :    59525
  Renormalizing the initial density to the exact electron count on the 3D integration grid.
  | Initial density: Formal number of electrons (from input files) :      48.0000000000
  | Integrated number of electrons on 3D grid     :      48.0000424956
  | Charge integration error                      :       0.0000424956
  | Normalization factor for density and gradient :       0.9999991147
  Obtaining max. number of non-zero basis functions in each batch (get_n_compute_maxes).
  | Maximal number of non-zero basis functions:      119 in task     0
  Selecting the method for density update.
  Loop over occupied states selected for charge density update.
  Allocating        0.050 MB for KS_eigenvector
  Integrating Hamiltonian matrix: batch-based integration.
  Time summed over all CPUs for integration: real work        0.495 s, elapsed        0.495 s
  Integrating overlap matrix.
  Time summed over all CPUs for integration: real work        0.213 s, elapsed        0.213 s

  Updating Kohn-Sham eigenvalues and eigenvectors using ELSI and the ELPA eigensolver.
  Overlap matrix is nonsingular
  | Lowest eigenvalue of overlap  :  0.48E-02
  | Highest eigenvalue of overlap :  0.61E+01
  Finished singularity check of overlap matrix
  | Time :     0.002 s
  Finished Cholesky decomposition
  | Time :     0.000 s
  Finished transformation to standard eigenproblem
  | Time :     0.000 s
  Starting LAPACK eigensolver
  Finished solving standard eigenproblem
  | Time :     0.002 s
  Finished back-transformation of eigenvectors
  | Time :     0.000 s

  Obtaining occupation numbers and chemical potential using ELSI.
  | Chemical potential (Fermi level):    -9.58022177eV
  Writing Kohn-Sham eigenvalues.

  State    Occupation    Eigenvalue [Ha]    Eigenvalue [eV]
      1       2.00000         -19.008196         -517.23933
      2       2.00000         -18.977391         -516.40109
      3       2.00000         -14.245808         -387.64815
      4       2.00000         -10.166599         -276.64724
      5       2.00000         -10.141294         -275.95865
      6       2.00000         -10.132107         -275.70865
      7       2.00000          -1.184585          -32.23419
      8       2.00000          -1.096815          -29.84585
      9       2.00000          -0.990725          -26.95901
     10       2.00000          -0.861538          -23.44365
     11       2.00000          -0.754877          -20.54125
     12       2.00000          -0.679532          -18.49101
     13       2.00000          -0.631651          -17.18811
     14       2.00000          -0.604496          -16.44919
     15       2.00000          -0.595899          -16.21524
     16       2.00000          -0.558765          -15.20478
     17       2.00000          -0.551234          -14.99984
     18       2.00000          -0.535463          -14.57069
     19       2.00000          -0.518534          -14.11002
     20       2.00000          -0.502941          -13.68572
     21       2.00000          -0.460021          -12.51780
     22       2.00000          -0.427072          -11.62121
     23       2.00000          -0.399592          -10.87346
     24       2.00000          -0.389968          -10.61156
     25       0.00000          -0.163331           -4.44448
     26       0.00000          -0.063112           -1.71737
     27       0.00000          -0.034159           -0.92952
     28       0.00000          -0.019670           -0.53526
     29       0.00000           0.005889            0.16025
     30       0.00000           0.010836            0.29486
     31       0.00000           0.020458            0.55669
     32       0.00000           0.033203            0.90351
     33       0.00000           0.036702            0.99872
     34       0.00000           0.066946            1.82170
     35       0.00000           0.081567            2.21955
     36       0.00000           0.132949            3.61772
     37       0.00000           0.167370            4.55436
     38       0.00000           0.206982            5.63228
     39       0.00000           0.212631            5.78598
     40       0.00000           0.219375            5.96950
     41       0.00000           0.262048            7.13068
     42       0.00000           0.273621            7.44561
     43       0.00000           0.289087            7.86647
     44       0.00000           0.310919            8.46055
     45       0.00000           0.311984            8.48952
     46       0.00000           0.364215            9.91080
     47       0.00000           0.386787           10.52500
     48       0.00000           0.406450           11.06005
     49       0.00000           0.422694           11.50209
     50       0.00000           0.467543           12.72248
     51       0.00000           0.507239           13.80267
     52       0.00000           0.528538           14.38226
     53       0.00000           0.565448           15.38662

  Highest occupied state (VBM) at    -10.61156108 eV
  | Occupation number:      2.00000000

  Lowest unoccupied state (CBM) at    -4.44447529 eV
  | Occupation number:      0.00000000

  Overall HOMO-LUMO gap:      6.16708579 eV.
  Calculating total energy contributions from superposition of free atom densities.

  Total energy components:
  | Sum of eigenvalues            :        -188.83020606 Ha       -5138.33134239 eV
  | XC energy correction          :         -41.78626518 Ha       -1137.06212862 eV
  | XC potential correction       :          53.71666526 Ha        1461.70483234 eV
  | Free-atom electrostatic energy:        -146.85816621 Ha       -3996.21402766 eV
  | Hartree energy correction     :           0.00000000 Ha           0.00000000 eV
  | vdW energy correction         :           0.00000000 Ha           0.00000000 eV
  | Entropy correction            :           0.00000000 Ha           0.00000000 eV
  | ---------------------------
  | Total energy                  :        -323.75797219 Ha       -8809.90266634 eV
  | Total energy, T -> 0          :        -323.75797219 Ha       -8809.90266634 eV  <-- do not rely on this value for anything but (periodic) metals
  | Electronic free energy        :        -323.75797219 Ha       -8809.90266634 eV

  Derived energy quantities:
  | Kinetic energy                :         320.49355567 Ha        8721.07337307 eV
  | Electrostatic energy          :        -602.46526268 Ha      -16393.91391079 eV
  | Energy correction for multipole
  | error in Hartree potential    :           0.00000000 Ha           0.00000000 eV
  | Sum of eigenvalues per atom                           :        -395.25625711 eV
  | Total energy (T->0) per atom                          :        -677.68482049 eV  <-- do not rely on this value for anything but (periodic) metals
  | Electronic free energy per atom                       :        -677.68482049 eV
  Initialize hartree_potential_storage
  Max. number of atoms included in rho_multipole:           13

  End scf initialization - timings             :  max(cpu_time)    wall_clock(cpu1)
  | Time for scf. initialization               :        1.153 s           1.155 s
  | Boundary condition initialization          :        0.000 s           0.000 s
  | Integration                                :        0.709 s           0.709 s
  | Solution of K.-S. eqns.                    :        0.004 s           0.004 s
  | Grid partitioning                          :        0.112 s           0.113 s
  | Preloading free-atom quantities on grid    :        0.002 s           0.002 s
  | Free-atom superposition energy             :        0.085 s           0.085 s
  | Total energy evaluation                    :        0.000 s           0.000 s

  Partial memory accounting:
  | Current value for overall tracked memory usage on task 0  :           0.165 MB
  | Peak value for overall tracked memory usage on task 0     :           0.678 MB after allocating wave
  | Largest tracked array allocation on task 0 so far         :           0.132 MB  when allocating H_times_psi
  Note:  These values currently only include a subset of arrays which are explicitly tracked.
  The "true" memory usage will be greater.
------------------------------------------------------------

------------------------------------------------------------
          Begin self-consistency iteration #    1

  Date     :  20200805, Time     :  182614.864
------------------------------------------------------------
  Evaluating new KS density.
  Integration grid: deviation in total charge (<rho> - N_e) =  -7.105427E-15
  Pulay mixing of updated and previous charge densities.

  Evaluating partitioned Hartree potential by multipole expansion.
  | Analytical far-field extrapolation by fixed multipoles:
  | Hartree multipole sum: apparent total charge =  -0.629873E-04
  Summing up the Hartree potential.
  Time summed over all CPUs for potential: real work        0.283 s, elapsed        0.283 s
  | RMS charge density error from multipole expansion :   0.589235E-02

  Integrating Hamiltonian matrix: batch-based integration.
  Time summed over all CPUs for integration: real work        0.494 s, elapsed        0.494 s

  Updating Kohn-Sham eigenvalues and eigenvectors using ELSI and the ELPA eigensolver.
  Finished Cholesky decomposition
  | Time :     0.000 s
  Finished transformation to standard eigenproblem
  | Time :     0.000 s
  Starting LAPACK eigensolver
  Finished solving standard eigenproblem
  | Time :     0.002 s
  Finished back-transformation of eigenvectors
  | Time :     0.000 s

  Obtaining occupation numbers and chemical potential using ELSI.
  | Chemical potential (Fermi level):    -4.39885494eV
  Writing Kohn-Sham eigenvalues.

  State    Occupation    Eigenvalue [Ha]    Eigenvalue [eV]
      1       2.00000         -18.899428         -514.27960
      2       2.00000         -18.841300         -512.69786
      3       2.00000         -14.094961         -383.54339
      4       2.00000         -10.119823         -275.37441
      5       2.00000         -10.062487         -273.81420
      6       2.00000         -10.029632         -272.92016
      7       2.00000          -1.135756          -30.90550
      8       2.00000          -1.035459          -28.17627
      9       2.00000          -0.920472          -25.04731
     10       2.00000          -0.794835          -21.62855
     11       2.00000          -0.703809          -19.15162
     12       2.00000          -0.633229          -17.23102
     13       2.00000          -0.578078          -15.73031
     14       2.00000          -0.544995          -14.83008
     15       2.00000          -0.539771          -14.68792
     16       2.00000          -0.495639          -13.48702
     17       2.00000          -0.493524          -13.42947
     18       2.00000          -0.472257          -12.85076
     19       2.00000          -0.455792          -12.40273
     20       2.00000          -0.441360          -12.01001
     21       2.00000          -0.400651          -10.90227
     22       2.00000          -0.372554          -10.13770
     23       2.00000          -0.330231           -8.98605
     24       2.00000          -0.314725           -8.56409
     25       0.00000          -0.129783           -3.53158
     26       0.00000          -0.042727           -1.16265
     27       0.00000          -0.005701           -0.15512
     28       0.00000           0.017369            0.47265
     29       0.00000           0.036814            1.00175
     30       0.00000           0.050354            1.37019
     31       0.00000           0.058426            1.58984
     32       0.00000           0.071703            1.95114
     33       0.00000           0.082806            2.25328
     34       0.00000           0.103598            2.81905
     35       0.00000           0.120953            3.29130
     36       0.00000           0.160826            4.37630
     37       0.00000           0.192196            5.22991
     38       0.00000           0.234171            6.37213
     39       0.00000           0.243024            6.61301
     40       0.00000           0.260553            7.09001
     41       0.00000           0.293305            7.98124
     42       0.00000           0.306254            8.33360
     43       0.00000           0.328417            8.93667
     44       0.00000           0.347025            9.44302
     45       0.00000           0.351856            9.57449
     46       0.00000           0.407874           11.09882
     47       0.00000           0.420313           11.43729
     48       0.00000           0.444634           12.09911
     49       0.00000           0.462040           12.57276
     50       0.00000           0.498150           13.55534
     51       0.00000           0.547033           14.88554
     52       0.00000           0.562784           15.31414
     53       0.00000           0.600043           16.32800

  Highest occupied state (VBM) at     -8.56409449 eV
  | Occupation number:      2.00000000

  Lowest unoccupied state (CBM) at    -3.53158104 eV
  | Occupation number:      0.00000000

  Overall HOMO-LUMO gap:      5.03251345 eV.

  Total energy components:
  | Sum of eigenvalues            :        -185.42153229 Ha       -5045.57660979 eV
  | XC energy correction          :         -42.11661668 Ha       -1146.05145025 eV
  | XC potential correction       :          54.14635278 Ha        1473.39722464 eV
  | Free-atom electrostatic energy:        -146.85816621 Ha       -3996.21402766 eV
  | Hartree energy correction     :          -3.32285051 Ha         -90.41936291 eV
  | vdW energy correction         :           0.00000000 Ha           0.00000000 eV
  | Entropy correction            :           0.00000000 Ha           0.00000000 eV
  | ---------------------------
  | Total energy                  :        -323.57281291 Ha       -8804.86422597 eV
  | Total energy, T -> 0          :        -323.57281291 Ha       -8804.86422597 eV  <-- do not rely on this value for anything but (periodic) metals
  | Electronic free energy        :        -323.57281291 Ha       -8804.86422597 eV

  Derived energy quantities:
  | Kinetic energy                :         322.29512529 Ha        8770.09657668 eV
  | Electrostatic energy          :        -603.75132152 Ha      -16428.90935240 eV
  | Energy correction for multipole
  | error in Hartree potential    :           0.01216876 Ha           0.33112885 eV
  | Sum of eigenvalues per atom                           :        -388.12127768 eV
  | Total energy (T->0) per atom                          :        -677.29724815 eV  <-- do not rely on this value for anything but (periodic) metals
  | Electronic free energy per atom                       :        -677.29724815 eV

  Self-consistency convergence accuracy:
  | Change of charge density      :  0.5898E+00
  | Change of sum of eigenvalues  :  0.9275E+02 eV
  | Change of total energy        :  0.5038E+01 eV

  End self-consistency iteration #     1       :  max(cpu_time)    wall_clock(cpu1)
  | Time for this iteration                    :        1.189 s           1.190 s
  | Charge density update                      :        0.394 s           0.395 s
  | Density mixing                             :        0.005 s           0.006 s
  | Hartree multipole update                   :        0.009 s           0.008 s
  | Hartree multipole summation                :        0.284 s           0.284 s
  | Integration                                :        0.494 s           0.494 s
  | Solution of K.-S. eqns.                    :        0.002 s           0.002 s
  | Total energy evaluation                    :        0.000 s           0.000 s

  Partial memory accounting:
  | Current value for overall tracked memory usage on task 0  :           0.165 MB
  | Peak value for overall tracked memory usage on task 0     :           0.695 MB after allocating gradient_basis_wave
  | Largest tracked array allocation on task 0 so far         :           0.397 MB  when allocating gradient_basis_wave
  Note:  These values currently only include a subset of arrays which are explicitly tracked.
  The "true" memory usage will be greater.
------------------------------------------------------------

------------------------------------------------------------
          Begin self-consistency iteration #    2

  Date     :  20200805, Time     :  182616.057
------------------------------------------------------------
  Evaluating new KS density.
  Integration grid: deviation in total charge (<rho> - N_e) =   2.842171E-14
  Pulay mixing of updated and previous charge densities.

  Evaluating partitioned Hartree potential by multipole expansion.
  | Analytical far-field extrapolation by fixed multipoles:
  | Hartree multipole sum: apparent total charge =  -0.196396E-03
  Summing up the Hartree potential.
  Time summed over all CPUs for potential: real work        0.283 s, elapsed        0.283 s
  | RMS charge density error from multipole expansion :   0.139410E-01

  Integrating Hamiltonian matrix: batch-based integration.
  Time summed over all CPUs for integration: real work        0.494 s, elapsed        0.494 s

  Updating Kohn-Sham eigenvalues and eigenvectors using ELSI and the ELPA eigensolver.
  Finished Cholesky decomposition
  | Time :     0.000 s
  Finished transformation to standard eigenproblem
  | Time :     0.000 s
  Starting LAPACK eigensolver
  Finished solving standard eigenproblem
  | Time :     0.002 s
  Finished back-transformation of eigenvectors
  | Time :     0.000 s

  Obtaining occupation numbers and chemical potential using ELSI.
  | Chemical potential (Fermi level):    -3.21248626eV
  Highest occupied state (VBM) at     -6.50578623 eV
  | Occupation number:      2.00000000

  Lowest unoccupied state (CBM) at    -2.36375419 eV
  | Occupation number:      0.00000000

  Overall HOMO-LUMO gap:      4.14203205 eV.

  Checking to see if s.c.f. parameters should be adjusted.

  Total energy components:
  | Sum of eigenvalues            :        -181.85353764 Ha       -4948.48653545 eV
  | XC energy correction          :         -42.47603011 Ha       -1155.83158747 eV
  | XC potential correction       :          54.61231896 Ha        1486.07680967 eV
  | Free-atom electrostatic energy:        -146.85816621 Ha       -3996.21402766 eV
  | Hartree energy correction     :          -6.91754771 Ha        -188.23605050 eV
  | vdW energy correction         :           0.00000000 Ha           0.00000000 eV
  | Entropy correction            :           0.00000000 Ha           0.00000000 eV
  | ---------------------------
  | Total energy                  :        -323.49296271 Ha       -8802.69139141 eV
  | Total energy, T -> 0          :        -323.49296271 Ha       -8802.69139141 eV  <-- do not rely on this value for anything but (periodic) metals
  | Electronic free energy        :        -323.49296271 Ha       -8802.69139141 eV

  Derived energy quantities:
  | Kinetic energy                :         323.61111705 Ha        8805.90653462 eV
  | Electrostatic energy          :        -604.62804965 Ha      -16452.76633856 eV
  | Energy correction for multipole
  | error in Hartree potential    :           0.02670866 Ha           0.72677954 eV
  | Sum of eigenvalues per atom                           :        -380.65281042 eV
  | Total energy (T->0) per atom                          :        -677.13010703 eV  <-- do not rely on this value for anything but (periodic) metals
  | Electronic free energy per atom                       :        -677.13010703 eV

  Self-consistency convergence accuracy:
  | Change of charge density      :  0.3688E+00
  | Change of sum of eigenvalues  :  0.9709E+02 eV
  | Change of total energy        :  0.2173E+01 eV

  End self-consistency iteration #     2       :  max(cpu_time)    wall_clock(cpu1)
  | Time for this iteration                    :        1.182 s           1.183 s
  | Charge density update                      :        0.386 s           0.386 s
  | Density mixing                             :        0.007 s           0.007 s
  | Hartree multipole update                   :        0.009 s           0.009 s
  | Hartree multipole summation                :        0.283 s           0.284 s
  | Integration                                :        0.494 s           0.494 s
  | Solution of K.-S. eqns.                    :        0.002 s           0.002 s
  | Total energy evaluation                    :        0.000 s           0.000 s

  Partial memory accounting:
  | Current value for overall tracked memory usage on task 0  :           0.166 MB
  | Peak value for overall tracked memory usage on task 0     :           0.695 MB after allocating gradient_basis_wave
  | Largest tracked array allocation on task 0 so far         :           0.397 MB  when allocating gradient_basis_wave
  Note:  These values currently only include a subset of arrays which are explicitly tracked.
  The "true" memory usage will be greater.
------------------------------------------------------------

------------------------------------------------------------
          Begin self-consistency iteration #    3

  Date     :  20200805, Time     :  182617.242
------------------------------------------------------------
  Evaluating new KS density.
  Integration grid: deviation in total charge (<rho> - N_e) =   7.105427E-15
  Pulay mixing of updated and previous charge densities.

  Evaluating partitioned Hartree potential by multipole expansion.
  | Analytical far-field extrapolation by fixed multipoles:
  | Hartree multipole sum: apparent total charge =  -0.288342E-03
  Summing up the Hartree potential.
  Time summed over all CPUs for potential: real work        0.283 s, elapsed        0.283 s
  | RMS charge density error from multipole expansion :   0.218362E-01

  Integrating Hamiltonian matrix: batch-based integration.
  Time summed over all CPUs for integration: real work        0.495 s, elapsed        0.495 s

  Updating Kohn-Sham eigenvalues and eigenvectors using ELSI and the ELPA eigensolver.
  Finished Cholesky decomposition
  | Time :     0.000 s
  Finished transformation to standard eigenproblem
  | Time :     0.000 s
  Starting LAPACK eigensolver
  Finished solving standard eigenproblem
  | Time :     0.001 s
  Finished back-transformation of eigenvectors
  | Time :     0.000 s

  Obtaining occupation numbers and chemical potential using ELSI.
  | Chemical potential (Fermi level):    -2.66998455eV
  Highest occupied state (VBM) at     -5.81919519 eV
  | Occupation number:      2.00000000

  Lowest unoccupied state (CBM) at    -1.70516749 eV
  | Occupation number:      0.00000000

  Overall HOMO-LUMO gap:      4.11402769 eV.

  Total energy components:
  | Sum of eigenvalues            :        -180.55456892 Ha       -4913.13979807 eV
  | XC energy correction          :         -42.62686456 Ha       -1159.93600150 eV
  | XC potential correction       :          54.80480526 Ha        1491.31462829 eV
  | Free-atom electrostatic energy:        -146.85816621 Ha       -3996.21402766 eV
  | Hartree energy correction     :          -8.24492957 Ha        -224.35594857 eV
  | vdW energy correction         :           0.00000000 Ha           0.00000000 eV
  | Entropy correction            :           0.00000000 Ha           0.00000000 eV
  | ---------------------------
  | Total energy                  :        -323.47972399 Ha       -8802.33114751 eV
  | Total energy, T -> 0          :        -323.47972399 Ha       -8802.33114751 eV  <-- do not rely on this value for anything but (periodic) metals
  | Electronic free energy        :        -323.47972399 Ha       -8802.33114751 eV

  Derived energy quantities:
  | Kinetic energy                :         323.21228231 Ha        8795.05368911 eV
  | Electrostatic energy          :        -604.06514175 Ha      -16437.44883512 eV
  | Energy correction for multipole
  | error in Hartree potential    :           0.03758563 Ha           1.02275713 eV
  | Sum of eigenvalues per atom                           :        -377.93383062 eV
  | Total energy (T->0) per atom                          :        -677.10239596 eV  <-- do not rely on this value for anything but (periodic) metals
  | Electronic free energy per atom                       :        -677.10239596 eV

  Self-consistency convergence accuracy:
  | Change of charge density      :  0.2066E+00
  | Change of sum of eigenvalues  :  0.3535E+02 eV
  | Change of total energy        :  0.3602E+00 eV

  End self-consistency iteration #     3       :  max(cpu_time)    wall_clock(cpu1)
  | Time for this iteration                    :        1.184 s           1.186 s
  | Charge density update                      :        0.387 s           0.387 s
  | Density mixing                             :        0.008 s           0.008 s
  | Hartree multipole update                   :        0.009 s           0.009 s
  | Hartree multipole summation                :        0.283 s           0.284 s
  | Integration                                :        0.494 s           0.495 s
  | Solution of K.-S. eqns.                    :        0.002 s           0.002 s
  | Total energy evaluation                    :        0.000 s           0.001 s

  Partial memory accounting:
  | Current value for overall tracked memory usage on task 0  :           0.166 MB
  | Peak value for overall tracked memory usage on task 0     :           0.695 MB after allocating gradient_basis_wave
  | Largest tracked array allocation on task 0 so far         :           0.397 MB  when allocating gradient_basis_wave
  Note:  These values currently only include a subset of arrays which are explicitly tracked.
  The "true" memory usage will be greater.
------------------------------------------------------------

------------------------------------------------------------
          Begin self-consistency iteration #    4

  Date     :  20200805, Time     :  182618.431
------------------------------------------------------------
  Evaluating new KS density.
  Integration grid: deviation in total charge (<rho> - N_e) =   1.421085E-14
  Pulay mixing of updated and previous charge densities.

  Evaluating partitioned Hartree potential by multipole expansion.
  | Analytical far-field extrapolation by fixed multipoles:
  | Hartree multipole sum: apparent total charge =  -0.319909E-03
  Summing up the Hartree potential.
  Time summed over all CPUs for potential: real work        0.282 s, elapsed        0.282 s
  | RMS charge density error from multipole expansion :   0.253275E-01

  Integrating Hamiltonian matrix: batch-based integration.
  Time summed over all CPUs for integration: real work        0.494 s, elapsed        0.494 s

  Updating Kohn-Sham eigenvalues and eigenvectors using ELSI and the ELPA eigensolver.
  Finished Cholesky decomposition
  | Time :     0.000 s
  Finished transformation to standard eigenproblem
  | Time :     0.000 s
  Starting LAPACK eigensolver
  Finished solving standard eigenproblem
  | Time :     0.002 s
  Finished back-transformation of eigenvectors
  | Time :     0.000 s

  Obtaining occupation numbers and chemical potential using ELSI.
  | Chemical potential (Fermi level):    -2.56822462eV
  Highest occupied state (VBM) at     -5.65822684 eV
  | Occupation number:      2.00000000

  Lowest unoccupied state (CBM) at    -1.60305428 eV
  | Occupation number:      0.00000000

  Overall HOMO-LUMO gap:      4.05517256 eV.

  Total energy components:
  | Sum of eigenvalues            :        -180.39673889 Ha       -4908.84502443 eV
  | XC energy correction          :         -42.66582576 Ha       -1160.99618966 eV
  | XC potential correction       :          54.85387967 Ha        1492.65001109 eV
  | Free-atom electrostatic energy:        -146.85816621 Ha       -3996.21402766 eV
  | Hartree energy correction     :          -8.41187794 Ha        -228.89884506 eV
  | vdW energy correction         :           0.00000000 Ha           0.00000000 eV
  | Entropy correction            :           0.00000000 Ha           0.00000000 eV
  | ---------------------------
  | Total energy                  :        -323.47872912 Ha       -8802.30407572 eV
  | Total energy, T -> 0          :        -323.47872912 Ha       -8802.30407572 eV  <-- do not rely on this value for anything but (periodic) metals
  | Electronic free energy        :        -323.47872912 Ha       -8802.30407572 eV

  Derived energy quantities:
  | Kinetic energy                :         322.81810099 Ha        8784.32746948 eV
  | Electrostatic energy          :        -603.63100435 Ha      -16425.63535554 eV
  | Energy correction for multipole
  | error in Hartree potential    :           0.04187518 Ha           1.13948152 eV
  | Sum of eigenvalues per atom                           :        -377.60346342 eV
  | Total energy (T->0) per atom                          :        -677.10031352 eV  <-- do not rely on this value for anything but (periodic) metals
  | Electronic free energy per atom                       :        -677.10031352 eV

  Self-consistency convergence accuracy:
  | Change of charge density      :  0.6785E-01
  | Change of sum of eigenvalues  :  0.4295E+01 eV
  | Change of total energy        :  0.2707E-01 eV

  End self-consistency iteration #     4       :  max(cpu_time)    wall_clock(cpu1)
  | Time for this iteration                    :        1.183 s           1.191 s
  | Charge density update                      :        0.386 s           0.393 s
  | Density mixing                             :        0.009 s           0.009 s
  | Hartree multipole update                   :        0.009 s           0.009 s
  | Hartree multipole summation                :        0.283 s           0.283 s
  | Integration                                :        0.494 s           0.494 s
  | Solution of K.-S. eqns.                    :        0.002 s           0.003 s
  | Total energy evaluation                    :        0.000 s           0.000 s

  Partial memory accounting:
  | Current value for overall tracked memory usage on task 0  :           0.166 MB
  | Peak value for overall tracked memory usage on task 0     :           0.696 MB after allocating gradient_basis_wave
  | Largest tracked array allocation on task 0 so far         :           0.397 MB  when allocating gradient_basis_wave
  Note:  These values currently only include a subset of arrays which are explicitly tracked.
  The "true" memory usage will be greater.
------------------------------------------------------------

------------------------------------------------------------
          Begin self-consistency iteration #    5

  Date     :  20200805, Time     :  182619.625
------------------------------------------------------------
  Evaluating new KS density.
  Integration grid: deviation in total charge (<rho> - N_e) =   7.105427E-15
  Pulay mixing of updated and previous charge densities.

  Evaluating partitioned Hartree potential by multipole expansion.
  | Analytical far-field extrapolation by fixed multipoles:
  | Hartree multipole sum: apparent total charge =  -0.313784E-03
  Summing up the Hartree potential.
  Time summed over all CPUs for potential: real work        0.282 s, elapsed        0.282 s
  | RMS charge density error from multipole expansion :   0.251176E-01

  Integrating Hamiltonian matrix: batch-based integration.
  Time summed over all CPUs for integration: real work        0.492 s, elapsed        0.492 s

  Updating Kohn-Sham eigenvalues and eigenvectors using ELSI and the ELPA eigensolver.
  Finished Cholesky decomposition
  | Time :     0.000 s
  Finished transformation to standard eigenproblem
  | Time :     0.000 s
  Starting LAPACK eigensolver
  Finished solving standard eigenproblem
  | Time :     0.002 s
  Finished back-transformation of eigenvectors
  | Time :     0.000 s

  Obtaining occupation numbers and chemical potential using ELSI.
  | Chemical potential (Fermi level):    -2.62349276eV
  Highest occupied state (VBM) at     -5.73722998 eV
  | Occupation number:      2.00000000

  Lowest unoccupied state (CBM) at    -1.70305004 eV
  | Occupation number:      0.00000000

  Overall HOMO-LUMO gap:      4.03417994 eV.

  Total energy components:
  | Sum of eigenvalues            :        -180.61415602 Ha       -4914.76124563 eV
  | XC energy correction          :         -42.63943944 Ha       -1160.27818138 eV
  | XC potential correction       :          54.81963805 Ha        1491.71824924 eV
  | Free-atom electrostatic energy:        -146.85816621 Ha       -3996.21402766 eV
  | Hartree energy correction     :          -8.18631541 Ha        -222.76097612 eV
  | vdW energy correction         :           0.00000000 Ha           0.00000000 eV
  | Entropy correction            :           0.00000000 Ha           0.00000000 eV
  | ---------------------------
  | Total energy                  :        -323.47843902 Ha       -8802.29618156 eV
  | Total energy, T -> 0          :        -323.47843902 Ha       -8802.29618156 eV  <-- do not rely on this value for anything but (periodic) metals
  | Electronic free energy        :        -323.47843902 Ha       -8802.29618156 eV

  Derived energy quantities:
  | Kinetic energy                :         322.68471378 Ha        8780.69781890 eV
  | Electrostatic energy          :        -603.52371336 Ha      -16422.71581908 eV
  | Energy correction for multipole
  | error in Hartree potential    :           0.04123255 Ha           1.12199488 eV
  | Sum of eigenvalues per atom                           :        -378.05855736 eV
  | Total energy (T->0) per atom                          :        -677.09970627 eV  <-- do not rely on this value for anything but (periodic) metals
  | Electronic free energy per atom                       :        -677.09970627 eV

  Self-consistency convergence accuracy:
  | Change of charge density      :  0.2039E-01
  | Change of sum of eigenvalues  : -0.5916E+01 eV
  | Change of total energy        :  0.7894E-02 eV

  End self-consistency iteration #     5       :  max(cpu_time)    wall_clock(cpu1)
  | Time for this iteration                    :        1.182 s           1.183 s
  | Charge density update                      :        0.385 s           0.385 s
  | Density mixing                             :        0.011 s           0.011 s
  | Hartree multipole update                   :        0.009 s           0.009 s
  | Hartree multipole summation                :        0.282 s           0.283 s
  | Integration                                :        0.492 s           0.492 s
  | Solution of K.-S. eqns.                    :        0.002 s           0.003 s
  | Total energy evaluation                    :        0.000 s           0.000 s

  Partial memory accounting:
  | Current value for overall tracked memory usage on task 0  :           0.166 MB
  | Peak value for overall tracked memory usage on task 0     :           0.696 MB after allocating gradient_basis_wave
  | Largest tracked array allocation on task 0 so far         :           0.397 MB  when allocating gradient_basis_wave
  Note:  These values currently only include a subset of arrays which are explicitly tracked.
  The "true" memory usage will be greater.
------------------------------------------------------------

------------------------------------------------------------
          Begin self-consistency iteration #    6

  Date     :  20200805, Time     :  182620.810
------------------------------------------------------------
  Evaluating new KS density.
  Integration grid: deviation in total charge (<rho> - N_e) =   2.131628E-14
  Pulay mixing of updated and previous charge densities.

  Evaluating partitioned Hartree potential by multipole expansion.
  | Analytical far-field extrapolation by fixed multipoles:
  | Hartree multipole sum: apparent total charge =  -0.318295E-03
  Summing up the Hartree potential.
  Time summed over all CPUs for potential: real work        0.282 s, elapsed        0.282 s
  | RMS charge density error from multipole expansion :   0.256112E-01

  Integrating Hamiltonian matrix: batch-based integration.
  Time summed over all CPUs for integration: real work        0.492 s, elapsed        0.492 s

  Updating Kohn-Sham eigenvalues and eigenvectors using ELSI and the ELPA eigensolver.
  Finished Cholesky decomposition
  | Time :     0.000 s
  Finished transformation to standard eigenproblem
  | Time :     0.000 s
  Starting LAPACK eigensolver
  Finished solving standard eigenproblem
  | Time :     0.002 s
  Finished back-transformation of eigenvectors
  | Time :     0.000 s

  Obtaining occupation numbers and chemical potential using ELSI.
  | Chemical potential (Fermi level):    -2.60275725eV
  Highest occupied state (VBM) at     -5.68775358 eV
  | Occupation number:      2.00000000

  Lowest unoccupied state (CBM) at    -1.70369910 eV
  | Occupation number:      0.00000000

  Overall HOMO-LUMO gap:      3.98405448 eV.

  Total energy components:
  | Sum of eigenvalues            :        -180.58181903 Ha       -4913.88131128 eV
  | XC energy correction          :         -42.64251967 Ha       -1160.36199868 eV
  | XC potential correction       :          54.82361359 Ha        1491.82642898 eV
  | Free-atom electrostatic energy:        -146.85816621 Ha       -3996.21402766 eV
  | Hartree energy correction     :          -8.21951109 Ha        -223.66427675 eV
  | vdW energy correction         :           0.00000000 Ha           0.00000000 eV
  | Entropy correction            :           0.00000000 Ha           0.00000000 eV
  | ---------------------------
  | Total energy                  :        -323.47840241 Ha       -8802.29518539 eV
  | Total energy, T -> 0          :        -323.47840241 Ha       -8802.29518539 eV  <-- do not rely on this value for anything but (periodic) metals
  | Electronic free energy        :        -323.47840241 Ha       -8802.29518539 eV

  Derived energy quantities:
  | Kinetic energy                :         322.61905123 Ha        8778.91105012 eV
  | Electrostatic energy          :        -603.45493398 Ha      -16420.84423683 eV
  | Energy correction for multipole
  | error in Hartree potential    :           0.04173176 Ha           1.13557908 eV
  | Sum of eigenvalues per atom                           :        -377.99087010 eV
  | Total energy (T->0) per atom                          :        -677.09962965 eV  <-- do not rely on this value for anything but (periodic) metals
  | Electronic free energy per atom                       :        -677.09962965 eV

  Self-consistency convergence accuracy:
  | Change of charge density      :  0.1072E-01
  | Change of sum of eigenvalues  :  0.8799E+00 eV
  | Change of total energy        :  0.9962E-03 eV

  End self-consistency iteration #     6       :  max(cpu_time)    wall_clock(cpu1)
  | Time for this iteration                    :        1.183 s           1.184 s
  | Charge density update                      :        0.385 s           0.386 s
  | Density mixing                             :        0.012 s           0.012 s
  | Hartree multipole update                   :        0.009 s           0.009 s
  | Hartree multipole summation                :        0.282 s           0.282 s
  | Integration                                :        0.492 s           0.492 s
  | Solution of K.-S. eqns.                    :        0.002 s           0.003 s
  | Total energy evaluation                    :        0.000 s           0.000 s

  Partial memory accounting:
  | Current value for overall tracked memory usage on task 0  :           0.166 MB
  | Peak value for overall tracked memory usage on task 0     :           0.696 MB after allocating gradient_basis_wave
  | Largest tracked array allocation on task 0 so far         :           0.397 MB  when allocating gradient_basis_wave
  Note:  These values currently only include a subset of arrays which are explicitly tracked.
  The "true" memory usage will be greater.
------------------------------------------------------------

------------------------------------------------------------
          Begin self-consistency iteration #    7

  Date     :  20200805, Time     :  182621.997
------------------------------------------------------------
  Evaluating new KS density.
  Integration grid: deviation in total charge (<rho> - N_e) =   1.421085E-14
  Pulay mixing of updated and previous charge densities.

  Evaluating partitioned Hartree potential by multipole expansion.
  | Analytical far-field extrapolation by fixed multipoles:
  | Hartree multipole sum: apparent total charge =  -0.318695E-03
  Summing up the Hartree potential.
  Time summed over all CPUs for potential: real work        0.282 s, elapsed        0.282 s
  | RMS charge density error from multipole expansion :   0.256997E-01

  Integrating Hamiltonian matrix: batch-based integration.
  Time summed over all CPUs for integration: real work        0.493 s, elapsed        0.493 s

  Updating Kohn-Sham eigenvalues and eigenvectors using ELSI and the ELPA eigensolver.
  Finished Cholesky decomposition
  | Time :     0.000 s
  Finished transformation to standard eigenproblem
  | Time :     0.000 s
  Starting LAPACK eigensolver
  Finished solving standard eigenproblem
  | Time :     0.002 s
  Finished back-transformation of eigenvectors
  | Time :     0.000 s

[...]
  |   Hirshfeld dipole moment :      0.05642523
  |   Hirshfeld second moments:      0.02104751      -0.02968121      -0.01761757
  |                                 -0.02968121      -0.02060453       0.00678801
  |                                 -0.01761757       0.00678801      -0.01600986
  ----------------------------------------------------------------------
  | Atom    12: O
  |   Hirshfeld charge        :     -0.15587153
  |   Free atom volume        :     23.61338643
  |   Hirshfeld volume        :     20.65870839
  |   Hirshfeld dipole vector :      0.00224541       0.03817504       0.01244743
  |   Hirshfeld dipole moment :      0.04021584
  |   Hirshfeld second moments:      0.11440655       0.00414438      -0.01507763
  |                                  0.00414438       0.03568169       0.00649816
  |                                 -0.01507763       0.00649816       0.04185816
  ----------------------------------------------------------------------
  | Atom    13: H
  |   Hirshfeld charge        :      0.19257887
  |   Free atom volume        :      9.95071624
  |   Hirshfeld volume        :      5.99516878
  |   Hirshfeld dipole vector :     -0.12219345       0.02582293       0.03753984
  |   Hirshfeld dipole moment :      0.13041205
  |   Hirshfeld second moments:      0.12692056       0.00519134      -0.00375324
  |                                  0.00519134       0.11904573       0.00416142
  |                                 -0.00375324       0.00416142       0.11464042
  ----------------------------------------------------------------------


  Total energy components:
  | Sum of eigenvalues            :        -180.58509251 Ha       -4913.97038730 eV
  | XC energy correction          :         -42.63878551 Ha       -1160.26038699 eV
  | XC potential correction       :          54.81886777 Ha        1491.69728871 eV
  | Free-atom electrostatic energy:        -146.85816621 Ha       -3996.21402766 eV
  | Hartree energy correction     :          -8.21520175 Ha        -223.54701365 eV
  | vdW energy correction         :          -0.00332447 Ha          -0.09046346 eV
  | Entropy correction            :           0.00000000 Ha           0.00000000 eV
  | ---------------------------
  | Total energy                  :        -323.48170268 Ha       -8802.38499035 eV
  | Total energy, T -> 0          :        -323.48170268 Ha       -8802.38499035 eV  <-- do not rely on this value for anything but (periodic) metals
  | Electronic free energy        :        -323.48170268 Ha       -8802.38499035 eV

  Derived energy quantities:
  | Kinetic energy                :         322.58083223 Ha        8777.87105816 eV
  | Electrostatic energy          :        -603.42042493 Ha      -16419.90519806 eV
  | Energy correction for multipole
  | error in Hartree potential    :           0.04174496 Ha           1.13593825 eV
  | Sum of eigenvalues per atom                           :        -377.99772210 eV
  | Total energy (T->0) per atom                          :        -677.10653772 eV  <-- do not rely on this value for anything but (periodic) metals
  | Electronic free energy per atom                       :        -677.10653772 eV

  atomic forces [eV/Ang]:
  -----------------------
  atom #    1
   Hellmann-Feynman              :  0.109212E+01  0.481019E-02  0.786071E+00
   Ionic forces                  :  0.000000E+00  0.000000E+00  0.000000E+00
   Multipole                     :  0.157642E+00  0.239988E+00 -0.274006E+00
   Pulay + GGA                   : -0.130146E+01 -0.145313E+00 -0.112679E+01
   Van der Waals                 :  0.676060E-02  0.577247E-02 -0.248968E-02
   ----------------------------------------------------------------
   Total forces(   1)            : -0.449379E-01  0.105258E+00 -0.617210E+00
  atom #    2
   Hellmann-Feynman              :  0.418485E+00  0.154664E-01  0.309219E+00
   Ionic forces                  :  0.000000E+00  0.000000E+00  0.000000E+00
   Multipole                     :  0.156256E+00  0.159578E-01 -0.221020E-01
   Pulay + GGA                   : -0.127648E+00  0.282330E-02  0.155440E-01
   Van der Waals                 :  0.835042E-02 -0.300884E-02 -0.222344E-02
   ----------------------------------------------------------------
   Total forces(   2)            :  0.455444E+00  0.312387E-01  0.300437E+00
  atom #    3
   Hellmann-Feynman              : -0.105806E+02  0.537131E+01  0.488432E+00
   Ionic forces                  :  0.000000E+00  0.000000E+00  0.000000E+00
   Multipole                     : -0.987855E-01  0.179874E+00 -0.101529E+01
   Pulay + GGA                   :  0.105406E+02 -0.539822E+01  0.118580E+01
   Van der Waals                 :  0.302564E-02 -0.589370E-02 -0.759302E-02
   ----------------------------------------------------------------
   Total forces(   3)            : -0.135784E+00  0.147074E+00  0.651348E+00
  atom #    4
   Hellmann-Feynman              :  0.914966E-01 -0.999960E-01 -0.122161E+00
   Ionic forces                  :  0.000000E+00  0.000000E+00  0.000000E+00
   Multipole                     :  0.343921E-01 -0.126315E-02 -0.103683E+00
   Pulay + GGA                   : -0.201544E+00 -0.414455E-01  0.122490E+00
   Van der Waals                 : -0.256380E-02 -0.352711E-02  0.126815E-02
   ----------------------------------------------------------------
   Total forces(   4)            : -0.782190E-01 -0.146232E+00 -0.102086E+00
  atom #    5
   Hellmann-Feynman              :  0.202875E+00 -0.185136E+00 -0.248607E+00
   Ionic forces                  :  0.000000E+00  0.000000E+00  0.000000E+00
   Multipole                     : -0.101210E-01 -0.725291E-01 -0.899447E-01
   Pulay + GGA                   : -0.707522E-01  0.198220E+00  0.882151E-01
   Van der Waals                 : -0.206090E-02  0.387888E-02 -0.137694E-02
   ----------------------------------------------------------------
   Total forces(   5)            :  0.119941E+00 -0.555658E-01 -0.251714E+00
  atom #    6
   Hellmann-Feynman              : -0.372868E-01 -0.633968E+00  0.601115E+00
   Ionic forces                  :  0.000000E+00  0.000000E+00  0.000000E+00
   Multipole                     : -0.127830E+00  0.637049E+00  0.235813E+00
   Pulay + GGA                   :  0.298516E+00 -0.396264E+00 -0.646237E+00
   Van der Waals                 : -0.617127E-02  0.310596E-02 -0.504499E-03
   ----------------------------------------------------------------
   Total forces(   6)            :  0.127228E+00 -0.390077E+00  0.190186E+00
  atom #    7
   Hellmann-Feynman              : -0.210247E+00 -0.426369E-01 -0.714705E-01
   Ionic forces                  :  0.000000E+00  0.000000E+00  0.000000E+00
   Multipole                     : -0.120334E+00  0.501812E-01  0.281748E-01
   Pulay + GGA                   :  0.116981E+00  0.173467E-01 -0.353753E-01
   Van der Waals                 : -0.129758E-02 -0.376620E-03  0.269488E-02
   ----------------------------------------------------------------
   Total forces(   7)            : -0.214898E+00  0.245144E-01 -0.759761E-01
  atom #    8
   Hellmann-Feynman              :  0.116894E+00 -0.199966E-01  0.153246E+00
   Ionic forces                  :  0.000000E+00  0.000000E+00  0.000000E+00
   Multipole                     :  0.119635E-01  0.621080E-01  0.124879E+00
   Pulay + GGA                   : -0.358855E-01 -0.363566E-01 -0.870072E-01
   Van der Waals                 : -0.274648E-02  0.112601E-01  0.140071E-02
   ----------------------------------------------------------------
   Total forces(   8)            :  0.902252E-01  0.170149E-01  0.192519E+00
  atom #    9
   Hellmann-Feynman              :  0.884105E-01  0.441055E-01 -0.188620E+00
   Ionic forces                  :  0.000000E+00  0.000000E+00  0.000000E+00
   Multipole                     :  0.163018E-01  0.127671E+00 -0.121356E-01
   Pulay + GGA                   : -0.593179E-01 -0.850692E-01  0.531706E-01
   Van der Waals                 : -0.188823E-02  0.300305E-02  0.335884E-02
   ----------------------------------------------------------------
   Total forces(   9)            :  0.435062E-01  0.897103E-01 -0.144227E+00
  atom #   10
   Hellmann-Feynman              :  0.335739E+01  0.559823E+01  0.195165E+01
   Ionic forces                  :  0.000000E+00  0.000000E+00  0.000000E+00
   Multipole                     :  0.187384E+00 -0.103444E+00  0.275592E+00
   Pulay + GGA                   : -0.109434E+01 -0.329048E+01 -0.540015E+00
   Van der Waals                 :  0.366025E-02 -0.107324E-01 -0.191315E-02
   ----------------------------------------------------------------
   Total forces(  10)            :  0.245409E+01  0.219357E+01  0.168531E+01
  atom #   11
   Hellmann-Feynman              :  0.395380E+01 -0.220992E+01  0.136861E+02
   Ionic forces                  :  0.000000E+00  0.000000E+00  0.000000E+00
   Multipole                     :  0.771169E-01 -0.682619E+00  0.791972E+00
   Pulay + GGA                   : -0.332673E+01  0.367668E+01 -0.134580E+02
   Van der Waals                 : -0.148272E-02 -0.119106E-01  0.230025E-02
   ----------------------------------------------------------------
   Total forces(  11)            :  0.702695E+00  0.772228E+00  0.102243E+01
  atom #   12
   Hellmann-Feynman              :  0.168126E+01 -0.100356E+02 -0.123232E+02
   Ionic forces                  :  0.000000E+00  0.000000E+00  0.000000E+00
   Multipole                     : -0.654689E+00 -0.142294E+01 -0.467768E+00
   Pulay + GGA                   : -0.371728E+01  0.955898E+01  0.102713E+02
   Van der Waals                 :  0.100925E-02  0.669019E-02  0.396153E-02
   ----------------------------------------------------------------
   Total forces(  12)            : -0.268970E+01 -0.189289E+01 -0.251572E+01
  atom #   13
   Hellmann-Feynman              : -0.112423E+01 -0.776110E+00 -0.186122E+00
   Ionic forces                  :  0.000000E+00  0.000000E+00  0.000000E+00
   Multipole                     : -0.641933E-01  0.113668E-01  0.944478E-03
   Pulay + GGA                   :  0.358895E+00 -0.133161E+00 -0.153267E+00
   Van der Waals                 : -0.459518E-02  0.173865E-02  0.111637E-02
   ----------------------------------------------------------------
   Total forces(  13)            : -0.834124E+00 -0.896166E+00 -0.337328E+00

  Timings for VdW correction (Tkatchenko-Scheffler 2009 or later):
  | CPU time:        0.089 s, Wall clock time:        0.090 s.
  Removing unitary transformations (pure translations, rotations) from forces on atoms.
  Atomic forces before filtering:
  | Net force on center of mass :  -0.453354E-02 -0.318704E-03 -0.203117E-02 eV/A
  | Net torque on center of mass:  -0.537034E-02  0.564278E-02 -0.887620E-02 eV
  Atomic forces after filtering:
  | Net force on center of mass :   0.892031E-15 -0.535218E-15 -0.223008E-15 eV/A
  | Net torque on center of mass:   0.226580E-14  0.283225E-15 -0.377634E-15 eV

  Energy and forces in a compact form:
  | Total energy uncorrected      :         -0.880238499034982E+04 eV
  | Total energy corrected        :         -0.880238499034982E+04 eV  <-- do not rely on this value for anything but (periodic) metals
  | Electronic free energy        :         -0.880238499034982E+04 eV
  Total atomic forces (unitary forces cleaned) [eV/Ang]:
  |   1         -0.445975384514951E-01          0.105419497903628E+00         -0.616951909206410E+00
  |   2          0.455783975696194E+00          0.317104214184286E-01          0.300919338358630E+00
  |   3         -0.135154617069318E+00          0.147247720165687E+00          0.651507345170724E+00
  |   4         -0.775941882172576E-01         -0.145794107970882E+00         -0.101734749839765E+00
  |   5          0.120904369125488E+00         -0.554034757511928E-01         -0.251686572285944E+00
  |   6          0.127060573658826E+00         -0.390133540131272E+00          0.190475614068904E+00
  |   7         -0.215076599908712E+00          0.241460578033855E-01         -0.759074658457270E-01
  |   8          0.898430056661040E-01          0.169522789745951E-01          0.192883637694790E+00
  |   9          0.431869674661346E-01          0.898098638925439E-01         -0.143767851001698E+00
  |  10          0.245464174189291E+01          0.219354203939374E+01          0.168534970872989E+01
  |  11          0.703093418343391E+00          0.772161060127083E+00          0.102250465299111E+01
  |  12         -0.268876221925397E+01         -0.189304659325235E+01         -0.251591454705205E+01
  |  13         -0.833328888948295E+00         -0.896611222573394E+00         -0.337677201782445E+00

  ------------------------------------ 
  Start decomposition of the XC Energy 
  ------------------------------------ 
  X and C from original XC functional choice 
  Hartree-Fock Energy :          0.000000000 Ha              0.000000000 eV
  X Energy            :        -41.038363432 Ha          -1116.710686611 eV
  C Energy            :         -1.600422073 Ha            -43.549700382 eV
  Total XC Energy     :        -42.638785505 Ha          -1160.260386993 eV
  ------------------------------------ 
  LDA X and C from self-consistent density 
  X Energy LDA        :        -37.256975503 Ha          -1013.813885712 eV
  C Energy LDA        :         -3.138580773 Ha            -85.405128204 eV
  ------------------------------------ 
  End decomposition of the XC Energy 
  ------------------------------------ 

------------------------------------------------------------

------------------------------------------------------------------------------
  Final output of selected total energy values:

  The following output summarizes some interesting total energy values
  at the end of a run (AFTER all relaxation, molecular dynamics, etc.).

  | Total energy of the DFT / Hartree-Fock s.c.f. calculation      :          -8802.384990350 eV
  | Final zero-broadening corrected energy (caution - metals only) :          -8802.384990350 eV
  | For reference only, the value of 1 Hartree used in FHI-aims is :             27.211384500 eV

  Before relying on these values, please be sure to understand exactly which
  total energy value is referred to by a given number. Different objects may
  all carry the same name 'total energy'. Definitions:

  Total energy of the DFT / Hartree-Fock s.c.f. calculation:
  | Note that this energy does not include ANY quantities calculated after the
  | s.c.f. cycle, in particular not ANY RPA, MP2, etc. many-body perturbation terms.

  Final zero-broadening corrected energy:
  | For metallic systems only, a broadening of the occupation numbers at the Fermi
  | level can be extrapolated back to zero broadening by an electron-gas inspired
  | formula. For all systems that are not real metals, this value can be
  | meaningless and should be avoided.

------------------------------------------------------------------------------
  Methods described in the following list of references were used in this FHI-aims run.
  If you publish the results, please make sure to cite these reference if they apply.
  FHI-aims is an academic code, and for our developers (often, Ph.D. students
  and postdocs), scientific credit in the community is essential.
  Thank you for helping us!

  For any use of FHI-aims, please cite:

    Volker Blum, Ralf Gehrke, Felix Hanke, Paula Havu, Ville Havu,
    Xinguo Ren, Karsten Reuter, and Matthias Scheffler
    'Ab initio molecular simulations with numeric atom-centered orbitals'
    Computer Physics Communications 180, 2175-2196 (2009)
    http://dx.doi.org/10.1016/j.cpc.2009.06.022


  The scalable eigensolver library ELPA was used in your run.
  ELPA is essential especially for large systems on hundreds or thousands of CPUs.
  For ELPA, please cite:

    Andreas Marek, Volker Blum, Rainer Johanni, Ville Havu, Bruno Lang,
    Thomas Auckenthaler, Alexander Heinecke, Hans-Joachim Bungartz, and Hermann Lederer,
    'The ELPA Library - Scalable Parallel Eigenvalue Solutions
    for Electronic Structure Theory and Computational Science'
    The Journal of Physics: Condensed Matter 26, 213201 (2014).
    http://dx.doi.org/10.1088/0953-8984/26/21/213201


  The ELSI infrastructure was used in your run to solve the Kohn-Sham electronic structure.
  Please check out http://elsi-interchange.org to learn more.
  If scalability is important for your project, please acknowledge ELSI by citing:

    V. W-z. Yu, F. Corsetti, A. Garcia, W. P. Huhn, M. Jacquelin, W. Jia,
    B. Lange, L. Lin, J. Lu, W. Mi, A. Seifitokaldani, A. Vazquez-Mayagoitia,
    C. Yang, H. Yang, and V. Blum
    'ELSI: A unified software interface for Kohn-Sham electronic structure solvers'
    Computer Physics Communications 222, 267-285 (2018).
    http://dx.doi.org/10.1016/j.cpc.2017.09.007


  For the real-space grid partitioning and parallelization used in this calculation, please cite:

    Ville Havu, Volker Blum, Paula Havu, and Matthias Scheffler,
    'Efficient O(N) integration for all-electron electronic structure calculation'
    'using numerically tabulated basis functions'
    Journal of Computational Physics 228, 8367-8379 (2009).
    http://dx.doi.org/10.1016/j.jcp.2009.08.008

  Of course, there are many other important community references, e.g., those cited in the
  above references. Our list is limited to references that describe implementations in the
  FHI-aims code. The reason is purely practical (length of this list) - please credit others as well.

------------------------------------------------------------
          Leaving FHI-aims.
          Date     :  20200805, Time     :  182636.316

          Computational steps:
          | Number of self-consistency cycles          :           16
          | Number of SCF (re)initializations          :            1

          Detailed time accounting                     :  max(cpu_time)    wall_clock(cpu1)
          | Total time                                 :       22.693 s          22.773 s
          | Preparation time                           :        0.147 s           0.148 s
          | Boundary condition initalization           :        0.000 s           0.000 s
          | Grid partitioning                          :        0.112 s           0.113 s
          | Preloading free-atom quantities on grid    :        0.002 s           0.002 s
          | Free-atom superposition energy             :        0.085 s           0.085 s
          | Total time for integrations                :        8.615 s           8.617 s
          | Total time for solution of K.-S. equations :        0.037 s           0.039 s
          | Total time for density & force components  :        7.143 s           7.157 s
          | Total time for mixing                      :        0.215 s           0.216 s
          | Total time for Hartree multipole update    :        0.140 s           0.142 s
          | Total time for Hartree multipole sum       :        5.797 s           5.807 s
          | Total time for total energy evaluation     :        0.003 s           0.003 s
          | Total time for vdW correction              :        0.089 s           0.090 s

          Partial memory accounting:
          | Residual value for overall tracked memory usage across tasks :           0.000 MB (should be 0.000 MB)
          | Peak values for overall tracked memory usage (after allocating hessian_basis_wave):
          |   Minimum:        1.622 MB (on task 1)
          |   Maximum:        1.622 MB (on task 1)
          |   Average:        1.622 MB
          | Largest tracked array allocation (hessian_basis_wave):
          |   Minimum:        0.794 MB (on task 1)
          |   Maximum:        0.794 MB (on task 1)
          |   Average:        0.794 MB
          Note:  These values currently only include a subset of arrays which are explicitly tracked.
          The "true" memory usage will be greater.

          Have a nice day.
------------------------------------------------------------
