  MPI-parallelism will be employed.
------------------------------------------------------------
          Invoking FHI-aims ...
          Version 171221_1
          Compiled on 2019/09/09 at 14:39:39 on host puhti-login2.bullx.

          When using FHI-aims, please cite the following reference:

          Volker Blum, Ralf Gehrke, Felix Hanke, Paula Havu,
          Ville Havu, Xinguo Ren, Karsten Reuter, and Matthias Scheffler,
          'Ab Initio Molecular Simulations with Numeric Atom-Centered Orbitals',
          Computer Physics Communications 180, 2175-2196 (2009)

          For any questions about FHI-aims, please visit the aimsclub website
          with its forums and wiki. Contributions to both the forums and the
          wiki are warmly encouraged - they are for you, and everyone is welcome there.

------------------------------------------------------------



  Date     :  20200710, Time     :  150735.116
  Time zero on CPU 1             :   0.117810000000000E-01  s.
  Internal wall clock time zero  :           363625655.116  s.

  FHI-aims created a unique identifier for this run for later identification
  aims_uuid : 87725086-D08B-4C0F-A202-FDBDB5063102

  Using        1 parallel tasks.
  Task        0 on host r18c45.bullx reporting.

  Performing system and environment tests:
  | Environment variable OMP_NUM_THREADS correctly set to 1.
  | Stacksize not measured: no C compiler
  | Checking for scalapack...
  | Testing pdtran()...
  | All pdtran() tests passed.

  Obtaining array dimensions for all initial allocations:
  
  -----------------------------------------------------------------------
  Parsing control.in (first pass over file, find array dimensions only).
  The contents of control.in will be repeated verbatim below
  unless switched off by setting 'verbatim_writeout .false.' .
  in the first line of control.in .
  -----------------------------------------------------------------------
  
  #########################################################################################
  #
  #  Volker Blum, FHI 2009 : Test run input file control.in for simple H2O
  #
  #########################################################################################
  #
  #  Physical model
  #
    xc                 pbe
    vdw_correction_hirshfeld
    spin               none
    relativistic       none
    charge             0.
  #
  #  SCF convergence
  #
    occupation_type    gaussian 0.01
    mixer              pulay
      n_max_pulay        10
      charge_mix_param   0.2
    sc_accuracy_rho    1E-5
    sc_accuracy_eev    1E-3
    sc_accuracy_etot   1E-6
    sc_accuracy_forces 1E-4
    sc_iter_limit      100
  #
  #  Relaxation
  #
  #  relax_geometry   bfgs 1.e-3
  #
  ################################################################################
  #
  #  FHI-aims code project
  #  VB, Fritz-Haber Institut, 2009
  #
  #  Suggested "light" defaults for H atom (to be pasted into control.in file)
  #  Be sure to double-check any results obtained with these settings for post-processing,
  #  e.g., with the "tight" defaults and larger basis sets.
  #
  ################################################################################
    species        H
  #     global species definitions
      nucleus             1
      mass                1.00794
  #
      l_hartree           4
  #
      cut_pot             3.5  1.5  1.0
      basis_dep_cutoff    1e-4
  #
      radial_base         24 5.0
      radial_multiplier   1
      angular_grids       specified
        division   0.2421   50
        division   0.3822  110
        division   0.4799  194
        division   0.5341  302
  #      division   0.5626  434
  #      division   0.5922  590
  #      division   0.6542  770
  #      division   0.6868 1202
  #      outer_grid  770
        outer_grid  302
  ################################################################################
  #
  #  Definition of "minimal" basis
  #
  ################################################################################
  #     valence basis states
      valence      1  s   1.
  #     ion occupancy
      ion_occ      1  s   0.5
  ################################################################################
  #
  #  Suggested additional basis functions. For production calculations,
  #  uncomment them one after another (the most important basis functions are
  #  listed first).
  #
  #  Basis constructed for dimers: 0.5 A, 0.7 A, 1.0 A, 1.5 A, 2.5 A
  #
  ################################################################################
  #  "First tier" - improvements: -1014.90 meV to -62.69 meV
       hydro 2 s 2.1
       hydro 2 p 3.5
  #  "Second tier" - improvements: -12.89 meV to -1.83 meV
  #     hydro 1 s 0.85
  #     hydro 2 p 3.7
  #     hydro 2 s 1.2
  #     hydro 3 d 7
  #  "Third tier" - improvements: -0.25 meV to -0.12 meV
  #     hydro 4 f 11.2
  #     hydro 3 p 4.8
  #     hydro 4 d 9
  #     hydro 3 s 3.2
  ################################################################################
  #
  #  FHI-aims code project
  #  VB, Fritz-Haber Institut, 2009
  #
  #  Suggested "light" defaults for C atom (to be pasted into control.in file)
  #  Be sure to double-check any results obtained with these settings for post-processing,
  #  e.g., with the "tight" defaults and larger basis sets.
  #
  ################################################################################
    species        C
  #     global species definitions
      nucleus             6
      mass                12.0107
  #
      l_hartree           4
  #
      cut_pot             3.5  1.5  1.0
      basis_dep_cutoff    1e-4
  #
      radial_base         34 5.0
      radial_multiplier   1
      angular_grids specified
        division   0.3326   50
        division   0.5710  110
        division   0.7727  194
        division   0.8772  302
  #      division   0.9334  434
  #      division   0.9625  590
  #      division   0.9924  770
  #      division   1.0230  974
  #      division   1.4589 1202
  #     outer_grid  974
       outer_grid 302
  ################################################################################
  #
  #  Definition of "minimal" basis
  #
  ################################################################################
  #     valence basis states
      valence      2  s   2.
      valence      2  p   2.
  #     ion occupancy
      ion_occ      2  s   1.
      ion_occ      2  p   1.
  ################################################################################
  #
  #  Suggested additional basis functions. For production calculations,
  #  uncomment them one after another (the most important basis functions are
  #  listed first).
  #
  #  Constructed for dimers: 1.0 A, 1.25 A, 1.5 A, 2.0 A, 3.0 A
  #
  ################################################################################
  #  "First tier" - improvements: -1214.57 meV to -155.61 meV
       hydro 2 p 1.7
       hydro 3 d 6
       hydro 2 s 4.9
  #  "Second tier" - improvements: -67.75 meV to -5.23 meV
  #     hydro 4 f 9.8
  #     hydro 3 p 5.2
  #     hydro 3 s 4.3
  #     hydro 5 g 14.4
  #     hydro 3 d 6.2
  #  "Third tier" - improvements: -2.43 meV to -0.60 meV
  #     hydro 2 p 5.6
  #     hydro 2 s 1.4
  #     hydro 3 d 4.9
  #     hydro 4 f 11.2
  #  "Fourth tier" - improvements: -0.39 meV to -0.18 meV
  #     hydro 2 p 2.1
  #     hydro 5 g 16.4
  #     hydro 4 d 13.2
  #     hydro 3 s 13.6
  #     hydro 4 f 17.6
  #  Further basis functions - improvements: -0.08 meV and below
  #     hydro 3 s 2
  #     hydro 3 p 6
  #     hydro 4 d 20
  ################################################################################
  #
  #  FHI-aims code project
  #  VB, Fritz-Haber Institut, 2009
  #
  #  Suggested "light" defaults for N atom (to be pasted into control.in file)
  #  Be sure to double-check any results obtained with these settings for post-processing,
  #  e.g., with the "tight" defaults and larger basis sets.
  #
  ################################################################################
    species        N
  #     global species definitions
      nucleus             7
      mass                14.0067
  #
      l_hartree           4
  #
      cut_pot             3.5  1.5  1.0
      basis_dep_cutoff    1e-4
  #
      radial_base         35 5.0
      radial_multiplier   1
      angular_grids       specified
        division   0.2599   50
        division   0.4601  110
        division   0.5885  194
        division   0.6503  302
  #      division   0.6939  434
  #      division   0.7396  590
  #      division   0.7632  770
  #      division   0.8122  974
  #      division   1.1604 1202
  #      outer_grid  974
        outer_grid  302
  ################################################################################
  #
  #  Definition of "minimal" basis
  #
  ################################################################################
  #     valence basis states
      valence      2  s   2.
      valence      2  p   3.
  #     ion occupancy
      ion_occ      2  s   1.
      ion_occ      2  p   2.
  ################################################################################
  #
  #  Suggested additional basis functions. For production calculations,
  #  uncomment them one after another (the most important basis functions are
  #  listed first).
  #
  #  Constructed for dimers: 1.0 A, 1.1 A, 1.5 A, 2.0 A, 3.0 A
  #
  ################################################################################
  #  "First tier" - improvements: -1193.42 meV to -220.60 meV
       hydro 2 p 1.8
       hydro 3 d 6.8
       hydro 3 s 5.8
  #  "Second tier" - improvements: -80.21 meV to -6.86 meV
  #     hydro 4 f 10.8
  #     hydro 3 p 5.8
  #     hydro 1 s 0.8
  #     hydro 5 g 16
  #     hydro 3 d 4.9
  #  "Third tier" - improvements: -4.29 meV to -0.53 meV
  #     hydro 3 s 16
  #     ionic 2 p auto
  #     hydro 3 d 6.6
  #     hydro 4 f 11.6
  #  "Fourth tier" - improvements: -0.75 meV to -0.25 meV
  #     hydro 2 p 4.5
  #     hydro 2 s 2.4
  #     hydro 5 g 14.4
  #     hydro 4 d 14.4
  #     hydro 4 f 16.8
  # Further basis functions - -0.21 meV and below
  #     hydro 3 p 14.8
  #     hydro 3 s 4.4
  #     hydro 3 d 19.6
  #     hydro 5 g 12.8
  ################################################################################
  #
  #  FHI-aims code project
  #  VB, Fritz-Haber Institut, 2009
  #
  #  Suggested "light" defaults for O atom (to be pasted into control.in file)
  #  Be sure to double-check any results obtained with these settings for post-processing,
  #  e.g., with the "tight" defaults and larger basis sets.
  #
  ################################################################################
    species        O
  #     global species definitions
      nucleus             8
      mass                15.9994
  #
      l_hartree           4
  #
      cut_pot             3.5  1.5  1.0
      basis_dep_cutoff    1e-4
  #
      radial_base         36 5.0
      radial_multiplier   1
       angular_grids specified
        division   0.2659   50
        division   0.4451  110
        division   0.6052  194
        division   0.7543  302
  #      division   0.8014  434
  #      division   0.8507  590
  #      division   0.8762  770
  #      division   0.9023  974
  #      division   1.2339 1202
  #      outer_grid 974
        outer_grid 302
  ################################################################################
  #
  #  Definition of "minimal" basis
  #
  ################################################################################
  #     valence basis states
      valence      2  s   2.
      valence      2  p   4.
  #     ion occupancy
      ion_occ      2  s   1.
      ion_occ      2  p   3.
  ################################################################################
  #
  #  Suggested additional basis functions. For production calculations,
  #  uncomment them one after another (the most important basis functions are
  #  listed first).
  #
  #  Constructed for dimers: 1.0 A, 1.208 A, 1.5 A, 2.0 A, 3.0 A
  #
  ################################################################################
  #  "First tier" - improvements: -699.05 meV to -159.38 meV
       hydro 2 p 1.8
       hydro 3 d 7.6
       hydro 3 s 6.4
  #  "Second tier" - improvements: -49.91 meV to -5.39 meV
  #     hydro 4 f 11.6
  #     hydro 3 p 6.2
  #     hydro 3 d 5.6
  #     hydro 5 g 17.6
  #     hydro 1 s 0.75
  #  "Third tier" - improvements: -2.83 meV to -0.50 meV
  #     ionic 2 p auto
  #     hydro 4 f 10.8
  #     hydro 4 d 4.7
  #     hydro 2 s 6.8
  #  "Fourth tier" - improvements: -0.40 meV to -0.12 meV
  #     hydro 3 p 5
  #     hydro 3 s 3.3
  #     hydro 5 g 15.6
  #     hydro 4 f 17.6
  #     hydro 4 d 14
  # Further basis functions - -0.08 meV and below
  #     hydro 3 s 2.1
  #     hydro 4 d 11.6
  #     hydro 3 p 16
  #     hydro 2 s 17.2
  
  -----------------------------------------------------------------------
  Completed first pass over input file control.in .
  -----------------------------------------------------------------------
  
  
  -----------------------------------------------------------------------
  Parsing geometry.in (first pass over file, find array dimensions only).
  The contents of geometry.in will be repeated verbatim below
  unless switched off by setting 'verbatim_writeout .false.' .
  in the first line of geometry.in .
  -----------------------------------------------------------------------
  
  atom  0.00000 0.00000 0.00000 C
  atom  1.09300 0.00000 0.00000 H
  atom  -0.47961 0.00000 -1.41207 N
  atom  -0.83542 -0.92994 -1.63666 H
  atom  -1.22009 0.69212 -1.50577 H
  atom  -0.49584 1.26211 0.72868 C
  atom  -1.58789 1.28919 0.74431 H
  atom  -0.13407 1.27425 1.75947 H
  atom  -0.13407 2.16087 0.22380 H
  atom  -0.39425 -1.28861 0.74398 C
  atom  -0.10189 -1.56493 1.88303 O
  atom  -1.10210 -2.13717 0.06896 O
  atom  -1.98330 -1.85755 0.36942 H
  
  -----------------------------------------------------------------------
  Completed first pass over input file geometry.in .
  -----------------------------------------------------------------------
  

  Basic array size parameters:
  | Number of species                 :        4
  | Number of atoms                   :       13
  | Max. basis fn. angular momentum   :        2
  | Max. atomic/ionic basis occupied n:        2
  | Max. number of basis fn. types    :        2
  | Max. radial fns per species/type  :        3
  | Max. logarithmic grid size        :     1301
  | Max. radial integration grid size :       36
  | Max. angular integration grid size:      302
  | Max. angular grid division number :        8
  | Radial grid for Hartree potential :     1301
  | Number of spin channels           :        1

------------------------------------------------------------
          Reading file control.in.
------------------------------------------------------------
  XC: Using PBE gradient-corrected functionals.
  Spin treatment: No spin polarisation.
  Non-relativistic treatment of kinetic energy.
  Charge =   0.000000E+00: Neutral system requested explicitly.
  Occupation type: Gaussian broadening, width =   0.100000E-01 eV.
  Using pulay charge density mixing.
  Pulay mixing - number of memorized iterations:   10
  Charge density mixing - mixing parameter:     0.2000
  Convergence accuracy of self-consistent charge density:  0.1000E-04
  Convergence accuracy of sum of eigenvalues:  0.1000E-02
  Convergence accuracy of total energy:  0.1000E-05
  Convergence accuracy of forces:  0.1000E-03
  Maximum number of s.-c. iterations  :   100
 
  Reading configuration options for species H                   .
  | Found nuclear charge :   1.0000
  | Found atomic mass :    1.00794000000000      amu
  | Found l_max for Hartree potential  :   4
  | Found cutoff potl. onset [A], width [A], scale factor :    3.50000    1.50000    1.00000
  | Threshold for basis-dependent cutoff potential is   0.100000E-03
  | Found data for basic radial integration grid :    24 points, outermost radius =    5.000 A
  | Found multiplier for basic radial grid :   1
  | Found angular grid specification: user-specified.
  | Specified grid contains     5 separate shells.
  | Check grid settings after all constraints further below.
  | Found free-atom valence shell :  1 s   1.000
  | No ionic wave fns used. Skipping ion_occ.
  | Found hydrogenic basis function :  2 s   2.100
  | Found hydrogenic basis function :  2 p   3.500
  Species H                   : Missing cutoff potential type.
  Defaulting to exp(1/x)/(1-x)^2 type cutoff potential.
  Species H : No 'logarithmic' tag. Using default grid for free atom:
  | Default logarithmic grid data [bohr] : 0.1000E-03 0.1000E+03 0.1012E+01
  Species H : On-site basis accuracy parameter (for Gram-Schmidt orthonormalisation) not specified.
  Using default value basis_acc =  0.1000000E-03.
  Species H                   : Using default innermost maximum threshold i_radial=  2 for radial functions.
  Species H                   : Default cutoff onset for free atom density etc. : 0.35000000E+01 AA.
  Species H                   : Basic radial grid will be enhanced according to radial_multiplier =   1, to contain    24 grid points.
 
  Reading configuration options for species C                   .
  | Found nuclear charge :   6.0000
  | Found atomic mass :    12.0107000000000      amu
  | Found l_max for Hartree potential  :   4
  | Found cutoff potl. onset [A], width [A], scale factor :    3.50000    1.50000    1.00000
  | Threshold for basis-dependent cutoff potential is   0.100000E-03
  | Found data for basic radial integration grid :    34 points, outermost radius =    5.000 A
  | Found multiplier for basic radial grid :   1
  | Found angular grid specification: user-specified.
  | Specified grid contains     5 separate shells.
  | Check grid settings after all constraints further below.
  | Found free-atom valence shell :  2 s   2.000
  | Found free-atom valence shell :  2 p   2.000
  | No ionic wave fns used. Skipping ion_occ.
  | No ionic wave fns used. Skipping ion_occ.
  | Found hydrogenic basis function :  2 p   1.700
  | Found hydrogenic basis function :  3 d   6.000
  | Found hydrogenic basis function :  2 s   4.900
  Species C                   : Missing cutoff potential type.
  Defaulting to exp(1/x)/(1-x)^2 type cutoff potential.
  Species C : No 'logarithmic' tag. Using default grid for free atom:
  | Default logarithmic grid data [bohr] : 0.1000E-03 0.1000E+03 0.1012E+01
  Species C : On-site basis accuracy parameter (for Gram-Schmidt orthonormalisation) not specified.
  Using default value basis_acc =  0.1000000E-03.
  Species C                   : Using default innermost maximum threshold i_radial=  2 for radial functions.
  Species C                   : Default cutoff onset for free atom density etc. : 0.35000000E+01 AA.
  Species C                   : Basic radial grid will be enhanced according to radial_multiplier =   1, to contain    34 grid points.
 
  Reading configuration options for species N                   .
  | Found nuclear charge :   7.0000
  | Found atomic mass :    14.0067000000000      amu
  | Found l_max for Hartree potential  :   4
  | Found cutoff potl. onset [A], width [A], scale factor :    3.50000    1.50000    1.00000
  | Threshold for basis-dependent cutoff potential is   0.100000E-03
  | Found data for basic radial integration grid :    35 points, outermost radius =    5.000 A
  | Found multiplier for basic radial grid :   1
  | Found angular grid specification: user-specified.
  | Specified grid contains     5 separate shells.
  | Check grid settings after all constraints further below.
  | Found free-atom valence shell :  2 s   2.000
  | Found free-atom valence shell :  2 p   3.000
  | No ionic wave fns used. Skipping ion_occ.
  | No ionic wave fns used. Skipping ion_occ.
  | Found hydrogenic basis function :  2 p   1.800
  | Found hydrogenic basis function :  3 d   6.800
  | Found hydrogenic basis function :  3 s   5.800
  Species N                   : Missing cutoff potential type.
  Defaulting to exp(1/x)/(1-x)^2 type cutoff potential.
  Species N : No 'logarithmic' tag. Using default grid for free atom:
  | Default logarithmic grid data [bohr] : 0.1000E-03 0.1000E+03 0.1012E+01
  Species N : On-site basis accuracy parameter (for Gram-Schmidt orthonormalisation) not specified.
  Using default value basis_acc =  0.1000000E-03.
  Species N                   : Using default innermost maximum threshold i_radial=  2 for radial functions.
  Species N                   : Default cutoff onset for free atom density etc. : 0.35000000E+01 AA.
  Species N                   : Basic radial grid will be enhanced according to radial_multiplier =   1, to contain    35 grid points.
 
  Reading configuration options for species O                   .
  | Found nuclear charge :   8.0000
  | Found atomic mass :    15.9994000000000      amu
  | Found l_max for Hartree potential  :   4
  | Found cutoff potl. onset [A], width [A], scale factor :    3.50000    1.50000    1.00000
  | Threshold for basis-dependent cutoff potential is   0.100000E-03
  | Found data for basic radial integration grid :    36 points, outermost radius =    5.000 A
  | Found multiplier for basic radial grid :   1
  | Found angular grid specification: user-specified.
  | Specified grid contains     5 separate shells.
  | Check grid settings after all constraints further below.
  | Found free-atom valence shell :  2 s   2.000
  | Found free-atom valence shell :  2 p   4.000
  | No ionic wave fns used. Skipping ion_occ.
  | No ionic wave fns used. Skipping ion_occ.
  | Found hydrogenic basis function :  2 p   1.800
  | Found hydrogenic basis function :  3 d   7.600
  | Found hydrogenic basis function :  3 s   6.400
  Species O                   : Missing cutoff potential type.
  Defaulting to exp(1/x)/(1-x)^2 type cutoff potential.
  Species O : No 'logarithmic' tag. Using default grid for free atom:
  | Default logarithmic grid data [bohr] : 0.1000E-03 0.1000E+03 0.1012E+01
  Species O : On-site basis accuracy parameter (for Gram-Schmidt orthonormalisation) not specified.
  Using default value basis_acc =  0.1000000E-03.
  Species O                   : Using default innermost maximum threshold i_radial=  2 for radial functions.
  Species O                   : Default cutoff onset for free atom density etc. : 0.35000000E+01 AA.
  Species O                   : Basic radial grid will be enhanced according to radial_multiplier =   1, to contain    36 grid points.
 
  Finished reading input file 'control.in'. Consistency checks are next.
 
  MPI_IN_PLACE appears to work with this MPI implementation.
  | Keeping use_mpi_in_place .true. (see manual).
  Target number of points in a grid batch is not set. Defaulting to  100
  Method for grid partitioning is not set. Defaulting to parallel hash+maxmin partitioning.
  Batch size limit is not set. Defaulting to    200
  By default, will store active basis functions for each batch.
  If in need of memory, prune_basis_once .false. can be used to disable this option.
  communication_type for Hartree potential was not specified.
  Defaulting to calc_hartree .
  Pulay mixer: Number of initial linear mixing iterations not set.
  Defaulting to    0 iterations.
  Work space size for distributed Hartree potential not set.
  Defaulting to   0.200000E+03 MB.
  Algorithm-dependent basis array size parameters:
  | n_max_pulay                         :       10
  Presetting      1001 iterations before the initial mixing cycle
  is restarted anyway using the sc_init_iter criterion / keyword.
  Presetting a factor      1.000 between actual scf density residual
  and density convergence criterion sc_accuracy_rho below which sc_init_iter
  takes no effect.
  Geometry relaxation not requested: no relaxation will be performed.
  Handling of forces: Unphysical translation and rotation will be removed from forces.
  No accuracy limit for integral partition fn. given. Defaulting to  0.1000E-14.
  No threshold value for u(r) in integrations given. Defaulting to  0.1000E-05.
  No accuracy for occupation numbers given. Defaulting to  0.1000E-12.
  No threshold value for occupation numbers given. Defaulting to  0.0000E+00.
  No accuracy for fermi level given. Defaulting to  0.1000E-19.
  Maximum # of iterations to find E_F not set. Defaulting to  200.
  Preferred method for the eigenvalue solver ('KS_method') not specified in 'control.in'.
  Defaulting to serial version, 'lapack_fast'.
  Will not use alltoall communication since running on < 1024 CPUs.
  Threshold for basis singularities not set.
  Default threshold for basis singularities:  0.1000E-04
  partition_type (choice of integration weights) for integrals was not specified.
  | Using a version of the partition function of Stratmann and coworkers ('stratmann_smoother').
  | At each grid point, the set of atoms used to build the partition table is smoothly restricted to
  | only those atoms whose free-atom density would be non-zero at that grid point.
  Partitioning for Hartree potential was not defined. Using partition_type for integrals.
  | Adjusted default value of keyword multip_moments_threshold to:       0.10000000E-11
  | This value may affect high angular momentum components of the Hartree potential in periodic systems.
  No q(lm)/r^(l+1) cutoff set for long-range Hartree potential.
  | Using default value of  0.100000E-09 .
  | Verify using the multipole_threshold keyword.
  Defaulting to new monopole extrapolation.
  Density update method: automatic selection selected.
------------------------------------------------------------


------------------------------------------------------------
          Reading geometry description geometry.in.
------------------------------------------------------------
  Input structure read successfully.
  The structure contains       13 atoms,  and a total of         48.000 electrons.

  Input geometry:
  | No unit cell requested.
  | Atomic structure:
  |       Atom                x [A]            y [A]            z [A]
  |    1: Species C             0.00000000        0.00000000        0.00000000
  |    2: Species H             1.09300000        0.00000000        0.00000000
  |    3: Species N            -0.47961000        0.00000000       -1.41207000
  |    4: Species H            -0.83542000       -0.92994000       -1.63666000
  |    5: Species H            -1.22009000        0.69212000       -1.50577000
  |    6: Species C            -0.49584000        1.26211000        0.72868000
  |    7: Species H            -1.58789000        1.28919000        0.74431000
  |    8: Species H            -0.13407000        1.27425000        1.75947000
  |    9: Species H            -0.13407000        2.16087000        0.22380000
  |   10: Species C            -0.39425000       -1.28861000        0.74398000
  |   11: Species O            -0.10189000       -1.56493000        1.88303000
  |   12: Species O            -1.10210000       -2.13717000        0.06896000
  |   13: Species H            -1.98330000       -1.85755000        0.36942000
  |

  | The smallest distance between any two atoms is         0.97209927 AA.
  |
  | The first atom of this pair is atom number                     12 .
  | The second atom of this pair is atom number                    13 .

  Number of empty states per atom not set in control.in - providing a guess from actual geometry.
  | Total number of empty states used during s.c.f. cycle:       29
  If you use a very high smearing, use empty_states (per atom!) in control.in to increase this value.

  Structure-dependent array size parameters: 
  | Maximum number of distinct radial functions  :       21
  | Maximum number of basis functions            :      119
  | Number of Kohn-Sham states (occupied + empty):       53
------------------------------------------------------------

------------------------------------------------------------
          Preparing all fixed parts of the calculation.
------------------------------------------------------------
  Determining machine precision:
    2.225073858507201E-308
  Setting up grids for atomic and cluster calculations.

  Creating wave function, potential, and density for free atoms.

  Species: H

  List of occupied orbitals and eigenvalues:
    n    l              occ      energy [Ha]    energy [eV]
    1    0           1.0000        -0.237589        -6.4651


  Species: C

  List of occupied orbitals and eigenvalues:
    n    l              occ      energy [Ha]    energy [eV]
    1    0           2.0000       -10.038835      -273.1706
    2    0           2.0000        -0.502696       -13.6791
    2    1           2.0000        -0.191971        -5.2238


  Species: N

  List of occupied orbitals and eigenvalues:
    n    l              occ      energy [Ha]    energy [eV]
    1    0           2.0000       -14.128000      -384.4424
    2    0           2.0000        -0.681077       -18.5330
    2    1           3.0000        -0.259788        -7.0692


  Species: O

  List of occupied orbitals and eigenvalues:
    n    l              occ      energy [Ha]    energy [eV]
    1    0           2.0000       -18.898188      -514.2459
    2    0           2.0000        -0.878505       -23.9053
    2    1           4.0000        -0.331779        -9.0282

  Creating fixed part of basis set: Ionic, confined, hydrogenic.
 
  H                    hydrogenic:
 
  List of hydrogenic basis orbitals: 
    n    l      effective z      eigenvalue [eV]  inner max. [A]     outer max. [A]     outer radius [A]   
    2    0         2.100000       -14.9728           0.193243           1.317208           4.583499
    2    1         3.500000       -41.6669           0.602369           0.602369           3.723403
 
 
  C                    hydrogenic:
 
  List of hydrogenic basis orbitals: 
    n    l      effective z      eigenvalue [eV]  inner max. [A]     outer max. [A]     outer radius [A]   
    2    1         1.700000        -9.7616           1.230570           1.230570           4.607917
    3    2         6.000000       -54.4224           0.792453           0.792453           3.883070
    2    0         4.900000       -81.6679           0.082559           0.562749           3.078220
 
 
  N                    hydrogenic:
 
  List of hydrogenic basis orbitals: 
    n    l      effective z      eigenvalue [eV]  inner max. [A]     outer max. [A]     outer radius [A]   
    2    1         1.800000       -10.9749           1.177451           1.177451           4.573712
    3    2         6.800000       -69.9026           0.704619           0.704619           3.538137
    3    0         5.800000       -50.8545           0.067388           1.191934           4.250239
 
 
  O                    hydrogenic:
 
  List of hydrogenic basis orbitals: 
    n    l      effective z      eigenvalue [eV]  inner max. [A]     outer max. [A]     outer radius [A]   
    2    1         1.800000       -10.9749           1.164242           1.164242           4.578029
    3    2         7.600000       -87.3180           0.624125           0.624125           3.251020
    3    0         6.400000       -61.9207           0.061167           1.081902           4.001998
 

  Adding cutoff potential to free-atom effective potential.
  Creating atomic-like basis functions for current effective potential.

  Species H                   :

  List of atomic basis orbitals and eigenvalues:
    n    l      energy [Ha]    energy [eV]    outer radius [A]
    1    0        -0.237589        -6.4651       4.527807


  Species C                   :

  List of atomic basis orbitals and eigenvalues:
    n    l      energy [Ha]    energy [eV]    outer radius [A]
    1    0       -10.038835      -273.1706       1.934409
    2    0        -0.502696       -13.6791       4.496620
    2    1        -0.191971        -5.2238       4.551928


  Species N                   :

  List of atomic basis orbitals and eigenvalues:
    n    l      energy [Ha]    energy [eV]    outer radius [A]
    1    0       -14.128000      -384.4424       1.637919
    2    0        -0.681077       -18.5330       4.463241
    2    1        -0.259788        -7.0692       4.518138


  Species O                   :

  List of atomic basis orbitals and eigenvalues:
    n    l      energy [Ha]    energy [eV]    outer radius [A]
    1    0       -18.898188      -514.2459       1.415765
    2    0        -0.878505       -23.9053       4.413171
    2    1        -0.331779        -9.0282       4.522403

  Assembling full basis from fixed parts.
  | Species H :   atomic orbital   1 s accepted.
  | Species H :    hydro orbital   2 s accepted.
  | Species H :    hydro orbital   2 p accepted.
  | Species C :   atomic orbital   1 s accepted.
  | Species C :    hydro orbital   2 s accepted.
  | Species C :   atomic orbital   2 s accepted.
  | Species C :   atomic orbital   2 p accepted.
  | Species C :    hydro orbital   2 p accepted.
  | Species C :    hydro orbital   3 d accepted.
  | Species N :   atomic orbital   1 s accepted.
  | Species N :    hydro orbital   3 s accepted.
  | Species N :   atomic orbital   2 s accepted.
  | Species N :   atomic orbital   2 p accepted.
  | Species N :    hydro orbital   2 p accepted.
  | Species N :    hydro orbital   3 d accepted.
  | Species O :   atomic orbital   1 s accepted.
  | Species O :    hydro orbital   3 s accepted.
  | Species O :   atomic orbital   2 s accepted.
  | Species O :   atomic orbital   2 p accepted.
  | Species O :    hydro orbital   2 p accepted.
  | Species O :    hydro orbital   3 d accepted.
 
  Basis size parameters after reduction:
  | Total number of radial functions:       21
  | Total number of basis functions :      119
 
  Per-task memory consumption for arrays in subroutine allocate_ext:
  |           5.250512MB.
  Testing on-site integration grid accuracy.
  |  Species  Function  <phi|h_atom|phi> (log., in eV)  <phi|h_atom|phi> (rad., in eV)
           1        1                 -6.4663192853                 -6.4651273558
           1        2                 13.7111246313                 13.7170609718
           1        3                 25.2673269279                 25.2674696378
           2        4               -273.1705927641               -273.1705631568
           2        5                -10.7109323383                -10.7107120029
           2        6                 17.4381822266                 17.4352413244
           2        7                 -5.2255326521                 -5.2270484734
           2        8                  8.6835629259                  8.6603288385
           2        9                 27.4952418996                 27.4953360207
           3       10               -384.4424306495               -384.4423701208
           3       11                 12.5842251816                 12.5842222903
           3       12                -15.7264628251                -15.7264433455
           3       13                 -7.0696854293                 -7.0701769954
           3       14                  8.8090390882                  8.7901077751
           3       15                 35.9586762123                 35.9588528632
           4       16               -514.2458688638               -514.2457643834
           4       17                 15.1795651126                 15.1795290741
           4       18                -21.5359799773                -21.5360846186
           4       19                 -9.0283069236                 -9.0284644067
           4       20                  8.3027758564                  8.2834874195
           4       21                 45.8339351984                 45.8338762259

  Preparing densities etc. for the partition functions (integrals / Hartree potential).

  Preparations completed.
  max(cpu_time)          :      0.149 s.
  Wall clock time (cpu1) :      0.151 s.
------------------------------------------------------------

------------------------------------------------------------
          Begin self-consistency loop: Initialization.

          Date     :  20200710, Time     :  150735.284
------------------------------------------------------------

  Initializing index lists of integration centers etc. from given atomic structure:
  | Number of centers in hartree potential         :        13
  | Number of centers in hartree multipole         :        13
  | Number of centers in electron density summation:        13
  | Number of centers in basis integrals           :        13
  | Number of centers in integrals                 :        13
  | Number of centers in hamiltonian               :        13
  Partitioning the integration grid into batches with parallel hashing+maxmin method.
  | Number of batches:      960
  | Maximal batch size:     139
  | Minimal batch size:      66
  | Average batch size:      72.548
  | Standard deviation of batch sizes:      16.977

  Integration load balanced across     1 MPI tasks.
  Work distribution over tasks is as follows:
  Task     0 has      69646 integration points.
  Initializing partition tables, free-atom densities, potentials, etc. across the integration grid (initialize_grid_storage).
  | initialize_grid_storage: Actual outermost partition radius vs. multipole_radius_free
  | (-- VB: in principle, multipole_radius_free should be larger, hence this output)
  | Species        1: Confinement radius =              4.999999999999999 AA, multipole_radius_free =              5.054417573612229 AA.
  | Species        1: outer_partition_radius set to              5.054417573612229 AA .
  | Species        2: Confinement radius =              4.999999999999999 AA, multipole_radius_free =              5.019602836301480 AA.
  | Species        2: outer_partition_radius set to              5.019602836301480 AA .
  | Species        3: Confinement radius =              4.999999999999999 AA, multipole_radius_free =              5.043624274424571 AA.
  | Species        3: outer_partition_radius set to              5.043624274424571 AA .
  | Species        4: Confinement radius =              4.999999999999999 AA, multipole_radius_free =              5.048384829883283 AA.
  | Species        4: outer_partition_radius set to              5.048384829883283 AA .
  | Original list of interatomic distances with          13 x         13 entries is created.
  | Net number of integration points:    69646
  | of which are non-zero points    :    59393
  Renormalizing the initial density to the exact electron count on the 3D integration grid.
  | Initial density: Formal number of electrons (from input files) :      48.0000000000
  | Integrated number of electrons on 3D grid     :      47.9998586352
  | Charge integration error                      :      -0.0001413648
  | Normalization factor for density and gradient :       1.0000029451
  Obtaining max. number of non-zero basis functions in each batch (get_n_compute_maxes).
  | Maximal number of non-zero basis functions:      119 in task     0
  Selecting the method for density update.
  Loop over occupied states selected for charge density update.
  Allocating        0.050 MB for KS_eigenvector
  Integrating Hamiltonian matrix: batch-based integration.
  Time summed over all CPUs for integration: real work        0.507 s, elapsed        0.507 s
  Integrating overlap matrix.
  Time summed over all CPUs for integration: real work        0.212 s, elapsed        0.212 s

  Updating Kohn-Sham eigenvalues and eigenvectors using ELSI and the ELPA eigensolver.
  Overlap matrix is nonsingular
  | Lowest eigenvalue of overlap  :  0.51E-02
  | Highest eigenvalue of overlap :  0.63E+01
  Finished singularity check of overlap matrix
  | Time :     0.002 s
  Finished Cholesky decomposition
  | Time :     0.000 s
  Finished transformation to standard eigenproblem
  | Time :     0.000 s
  Starting LAPACK eigensolver
  Finished solving standard eigenproblem
  | Time :     0.002 s
  Finished back-transformation of eigenvectors
  | Time :     0.000 s

  Obtaining occupation numbers and chemical potential using ELSI.
  | Chemical potential (Fermi level):    -9.57095703eV
  Writing Kohn-Sham eigenvalues.

  State    Occupation    Eigenvalue [Ha]    Eigenvalue [eV]
      1       2.00000         -19.008422         -517.24548
      2       2.00000         -18.977351         -516.39998
      3       2.00000         -14.245819         -387.64847
      4       2.00000         -10.166879         -276.65486
      5       2.00000         -10.141311         -275.95911
      6       2.00000         -10.132155         -275.70996
      7       2.00000          -1.184578          -32.23401
      8       2.00000          -1.097436          -29.86275
      9       2.00000          -0.991724          -26.98618
     10       2.00000          -0.859535          -23.38913
     11       2.00000          -0.758137          -20.62995
     12       2.00000          -0.679854          -18.49976
     13       2.00000          -0.629819          -17.13826
     14       2.00000          -0.610810          -16.62099
     15       2.00000          -0.583368          -15.87424
     16       2.00000          -0.573140          -15.59592
     17       2.00000          -0.551621          -15.01037
     18       2.00000          -0.528655          -14.38542
     19       2.00000          -0.519451          -14.13497
     20       2.00000          -0.499241          -13.58503
     21       2.00000          -0.459114          -12.49312
     22       2.00000          -0.430408          -11.71201
     23       2.00000          -0.412121          -11.21439
     24       2.00000          -0.379036          -10.31409
     25       0.00000          -0.163547           -4.45035
     26       0.00000          -0.064469           -1.75430
     27       0.00000          -0.030060           -0.81797
     28       0.00000          -0.018655           -0.50761
     29       0.00000          -0.000419           -0.01141
     30       0.00000           0.006096            0.16588
     31       0.00000           0.019073            0.51901
     32       0.00000           0.029587            0.80510
     33       0.00000           0.044515            1.21130
     34       0.00000           0.060168            1.63724
     35       0.00000           0.099808            2.71592
     36       0.00000           0.132995            3.61898
     37       0.00000           0.162866            4.43182
     38       0.00000           0.199925            5.44024
     39       0.00000           0.213596            5.81223
     40       0.00000           0.243936            6.63782
     41       0.00000           0.254370            6.92176
     42       0.00000           0.274896            7.48030
     43       0.00000           0.288210            7.84258
     44       0.00000           0.297825            8.10424
     45       0.00000           0.318071            8.65515
     46       0.00000           0.357731            9.73436
     47       0.00000           0.366975            9.98591
     48       0.00000           0.404407           11.00448
     49       0.00000           0.437204           11.89694
     50       0.00000           0.494344           13.45179
     51       0.00000           0.500522           13.61990
     52       0.00000           0.534240           14.53741
     53       0.00000           0.565816           15.39664

  Highest occupied state (VBM) at    -10.31409224 eV
  | Occupation number:      2.00000000

  Lowest unoccupied state (CBM) at    -4.45034808 eV
  | Occupation number:      0.00000000

  Overall HOMO-LUMO gap:      5.86374416 eV.
  Calculating total energy contributions from superposition of free atom densities.

  Total energy components:
  | Sum of eigenvalues            :        -188.83996447 Ha       -5138.59688203 eV
  | XC energy correction          :         -41.79289521 Ha       -1137.24254085 eV
  | XC potential correction       :          53.72594164 Ha        1461.95725561 eV
  | Free-atom electrostatic energy:        -146.84723696 Ha       -3995.91662781 eV
  | Hartree energy correction     :           0.00000000 Ha           0.00000000 eV
  | vdW energy correction         :           0.00000000 Ha           0.00000000 eV
  | Entropy correction            :           0.00000000 Ha           0.00000000 eV
  | ---------------------------
  | Total energy                  :        -323.75415500 Ha       -8809.79879509 eV
  | Total energy, T -> 0          :        -323.75415500 Ha       -8809.79879509 eV  <-- do not rely on this value for anything but (periodic) metals
  | Electronic free energy        :        -323.75415500 Ha       -8809.79879509 eV

  Derived energy quantities:
  | Kinetic energy                :         320.51036257 Ha        8721.53071217 eV
  | Electrostatic energy          :        -602.47162236 Ha      -16394.08696641 eV
  | Energy correction for multipole
  | error in Hartree potential    :           0.00000000 Ha           0.00000000 eV
  | Sum of eigenvalues per atom                           :        -395.27668323 eV
  | Total energy (T->0) per atom                          :        -677.67683039 eV  <-- do not rely on this value for anything but (periodic) metals
  | Electronic free energy per atom                       :        -677.67683039 eV
  Initialize hartree_potential_storage
  Max. number of atoms included in rho_multipole:           13

  End scf initialization - timings             :  max(cpu_time)    wall_clock(cpu1)
  | Time for scf. initialization               :        1.163 s           1.164 s
  | Boundary condition initialization          :        0.000 s           0.000 s
  | Integration                                :        0.720 s           0.720 s
  | Solution of K.-S. eqns.                    :        0.004 s           0.004 s
  | Grid partitioning                          :        0.112 s           0.112 s
  | Preloading free-atom quantities on grid    :        0.002 s           0.003 s
  | Free-atom superposition energy             :        0.084 s           0.084 s
  | Total energy evaluation                    :        0.000 s           0.000 s

  Partial memory accounting:
  | Current value for overall tracked memory usage on task 0  :           0.165 MB
  | Peak value for overall tracked memory usage on task 0     :           0.678 MB after allocating wave
  | Largest tracked array allocation on task 0 so far         :           0.132 MB  when allocating H_times_psi
  Note:  These values currently only include a subset of arrays which are explicitly tracked.
  The "true" memory usage will be greater.
------------------------------------------------------------

------------------------------------------------------------
          Begin self-consistency iteration #    1

  Date     :  20200710, Time     :  150736.448
------------------------------------------------------------
  Evaluating new KS density.
  Integration grid: deviation in total charge (<rho> - N_e) =  -2.842171E-14
  Pulay mixing of updated and previous charge densities.

  Evaluating partitioned Hartree potential by multipole expansion.
  | Analytical far-field extrapolation by fixed multipoles:
  | Hartree multipole sum: apparent total charge =  -0.240816E-03
  Summing up the Hartree potential.
  Time summed over all CPUs for potential: real work        0.282 s, elapsed        0.282 s
  | RMS charge density error from multipole expansion :   0.595611E-02

  Integrating Hamiltonian matrix: batch-based integration.
  Time summed over all CPUs for integration: real work        0.495 s, elapsed        0.495 s

  Updating Kohn-Sham eigenvalues and eigenvectors using ELSI and the ELPA eigensolver.
  Finished Cholesky decomposition
  | Time :     0.000 s
  Finished transformation to standard eigenproblem
  | Time :     0.000 s
  Starting LAPACK eigensolver
  Finished solving standard eigenproblem
  | Time :     0.001 s
  Finished back-transformation of eigenvectors
  | Time :     0.000 s

  Obtaining occupation numbers and chemical potential using ELSI.
  | Chemical potential (Fermi level):    -4.28405271eV
  Writing Kohn-Sham eigenvalues.

  State    Occupation    Eigenvalue [Ha]    Eigenvalue [eV]
      1       2.00000         -18.901240         -514.32890
      2       2.00000         -18.840995         -512.68955
      3       2.00000         -14.094503         -383.53093
      4       2.00000         -10.119559         -275.36721
      5       2.00000         -10.062652         -273.81868
      6       2.00000         -10.035215         -273.07209
      7       2.00000          -1.136806          -30.93407
      8       2.00000          -1.036430          -28.20269
      9       2.00000          -0.921647          -25.07929
     10       2.00000          -0.794687          -21.62453
     11       2.00000          -0.708198          -19.27105
     12       2.00000          -0.635518          -17.29333
     13       2.00000          -0.575963          -15.67276
     14       2.00000          -0.555787          -15.12373
     15       2.00000          -0.522367          -14.21432
     16       2.00000          -0.515773          -14.03491
     17       2.00000          -0.491203          -13.36632
     18       2.00000          -0.470990          -12.81629
     19       2.00000          -0.455606          -12.39767
     20       2.00000          -0.441760          -12.02090
     21       2.00000          -0.399161          -10.86172
     22       2.00000          -0.375589          -10.22028
     23       2.00000          -0.341271           -9.28646
     24       2.00000          -0.306770           -8.34762
     25       0.00000          -0.130156           -3.54172
     26       0.00000          -0.045827           -1.24703
     27       0.00000           0.002073            0.05640
     28       0.00000           0.015727            0.42796
     29       0.00000           0.029109            0.79210
     30       0.00000           0.043922            1.19518
     31       0.00000           0.056823            1.54623
     32       0.00000           0.069185            1.88263
     33       0.00000           0.076957            2.09410
     34       0.00000           0.101922            2.77344
     35       0.00000           0.142212            3.86978
     36       0.00000           0.160433            4.36560
     37       0.00000           0.186752            5.08179
     38       0.00000           0.225332            6.13159
     39       0.00000           0.244986            6.66642
     40       0.00000           0.280657            7.63705
     41       0.00000           0.287037            7.81067
     42       0.00000           0.307370            8.36395
     43       0.00000           0.326854            8.89414
     44       0.00000           0.333117            9.06458
     45       0.00000           0.357688            9.73318
     46       0.00000           0.391868           10.66328
     47       0.00000           0.409303           11.13770
     48       0.00000           0.443415           12.06594
     49       0.00000           0.469625           12.77915
     50       0.00000           0.521187           14.18221
     51       0.00000           0.538105           14.64258
     52       0.00000           0.568160           15.46043
     53       0.00000           0.604507           16.44948

  Highest occupied state (VBM) at     -8.34762448 eV
  | Occupation number:      2.00000000

  Lowest unoccupied state (CBM) at    -3.54172090 eV
  | Occupation number:      0.00000000

  Overall HOMO-LUMO gap:      4.80590359 eV.

  Total energy components:
  | Sum of eigenvalues            :        -185.47937493 Ha       -5047.15058802 eV
  | XC energy correction          :         -42.12194944 Ha       -1146.19656208 eV
  | XC potential correction       :          54.15388928 Ha        1473.60230325 eV
  | Free-atom electrostatic energy:        -146.84723696 Ha       -3995.91662781 eV
  | Hartree energy correction     :          -3.27554861 Ha         -89.13221256 eV
  | vdW energy correction         :           0.00000000 Ha           0.00000000 eV
  | Entropy correction            :           0.00000000 Ha           0.00000000 eV
  | ---------------------------
  | Total energy                  :        -323.57022066 Ha       -8804.79368722 eV
  | Total energy, T -> 0          :        -323.57022066 Ha       -8804.79368722 eV  <-- do not rely on this value for anything but (periodic) metals
  | Electronic free energy        :        -323.57022066 Ha       -8804.79368722 eV

  Derived energy quantities:
  | Kinetic energy                :         322.30902021 Ha        8770.47467675 eV
  | Electrostatic energy          :        -603.75729143 Ha      -16429.07180189 eV
  | Energy correction for multipole
  | error in Hartree potential    :           0.01205266 Ha           0.32796964 eV
  | Sum of eigenvalues per atom                           :        -388.24235292 eV
  | Total energy (T->0) per atom                          :        -677.29182209 eV  <-- do not rely on this value for anything but (periodic) metals
  | Electronic free energy per atom                       :        -677.29182209 eV

  Self-consistency convergence accuracy:
  | Change of charge density      :  0.5892E+00
  | Change of sum of eigenvalues  :  0.9145E+02 eV
  | Change of total energy        :  0.5005E+01 eV

  End self-consistency iteration #     1       :  max(cpu_time)    wall_clock(cpu1)
  | Time for this iteration                    :        1.190 s           1.191 s
  | Charge density update                      :        0.395 s           0.396 s
  | Density mixing                             :        0.005 s           0.005 s
  | Hartree multipole update                   :        0.009 s           0.009 s
  | Hartree multipole summation                :        0.283 s           0.283 s
  | Integration                                :        0.495 s           0.495 s
  | Solution of K.-S. eqns.                    :        0.002 s           0.003 s
  | Total energy evaluation                    :        0.000 s           0.000 s

  Partial memory accounting:
  | Current value for overall tracked memory usage on task 0  :           0.165 MB
  | Peak value for overall tracked memory usage on task 0     :           0.695 MB after allocating gradient_basis_wave
  | Largest tracked array allocation on task 0 so far         :           0.397 MB  when allocating gradient_basis_wave
  Note:  These values currently only include a subset of arrays which are explicitly tracked.
  The "true" memory usage will be greater.
------------------------------------------------------------

------------------------------------------------------------
          Begin self-consistency iteration #    2

  Date     :  20200710, Time     :  150737.641
------------------------------------------------------------
  Evaluating new KS density.
  Integration grid: deviation in total charge (<rho> - N_e) =   0.000000E+00
  Pulay mixing of updated and previous charge densities.

  Evaluating partitioned Hartree potential by multipole expansion.
  | Analytical far-field extrapolation by fixed multipoles:
  | Hartree multipole sum: apparent total charge =  -0.365744E-03
  Summing up the Hartree potential.
  Time summed over all CPUs for potential: real work        0.282 s, elapsed        0.282 s
  | RMS charge density error from multipole expansion :   0.140677E-01

  Integrating Hamiltonian matrix: batch-based integration.
  Time summed over all CPUs for integration: real work        0.494 s, elapsed        0.494 s

  Updating Kohn-Sham eigenvalues and eigenvectors using ELSI and the ELPA eigensolver.
  Finished Cholesky decomposition
  | Time :     0.000 s
  Finished transformation to standard eigenproblem
  | Time :     0.000 s
  Starting LAPACK eigensolver
  Finished solving standard eigenproblem
  | Time :     0.002 s
  Finished back-transformation of eigenvectors
  | Time :     0.000 s

  Obtaining occupation numbers and chemical potential using ELSI.
  | Chemical potential (Fermi level):    -3.02855506eV
  Highest occupied state (VBM) at     -6.36452456 eV
  | Occupation number:      2.00000000

  Lowest unoccupied state (CBM) at    -2.37509598 eV
  | Occupation number:      0.00000000

  Overall HOMO-LUMO gap:      3.98942858 eV.

  Checking to see if s.c.f. parameters should be adjusted.

  Total energy components:
  | Sum of eigenvalues            :        -181.95432583 Ha       -4951.22912171 eV
  | XC energy correction          :         -42.48028312 Ha       -1155.94731777 eV
  | XC potential correction       :          54.61837585 Ha        1486.24162600 eV
  | Free-atom electrostatic energy:        -146.84723696 Ha       -3995.91662781 eV
  | Hartree energy correction     :          -6.82722421 Ha        -185.77822311 eV
  | vdW energy correction         :           0.00000000 Ha           0.00000000 eV
  | Entropy correction            :           0.00000000 Ha           0.00000000 eV
  | ---------------------------
  | Total energy                  :        -323.49069429 Ha       -8802.62966441 eV
  | Total energy, T -> 0          :        -323.49069429 Ha       -8802.62966441 eV  <-- do not rely on this value for anything but (periodic) metals
  | Electronic free energy        :        -323.49069429 Ha       -8802.62966441 eV

  Derived energy quantities:
  | Kinetic energy                :         323.62491557 Ha        8806.28201142 eV
  | Electrostatic energy          :        -604.63532673 Ha      -16452.96435806 eV
  | Energy correction for multipole
  | error in Hartree potential    :           0.02634305 Ha           0.71683075 eV
  | Sum of eigenvalues per atom                           :        -380.86377859 eV
  | Total energy (T->0) per atom                          :        -677.12535880 eV  <-- do not rely on this value for anything but (periodic) metals
  | Electronic free energy per atom                       :        -677.12535880 eV

  Self-consistency convergence accuracy:
  | Change of charge density      :  0.3689E+00
  | Change of sum of eigenvalues  :  0.9592E+02 eV
  | Change of total energy        :  0.2164E+01 eV

  End self-consistency iteration #     2       :  max(cpu_time)    wall_clock(cpu1)
  | Time for this iteration                    :        1.183 s           1.183 s
  | Charge density update                      :        0.388 s           0.388 s
  | Density mixing                             :        0.007 s           0.007 s
  | Hartree multipole update                   :        0.009 s           0.009 s
  | Hartree multipole summation                :        0.282 s           0.282 s
  | Integration                                :        0.494 s           0.495 s
  | Solution of K.-S. eqns.                    :        0.002 s           0.002 s
  | Total energy evaluation                    :        0.000 s           0.000 s

  Partial memory accounting:
  | Current value for overall tracked memory usage on task 0  :           0.166 MB
  | Peak value for overall tracked memory usage on task 0     :           0.695 MB after allocating gradient_basis_wave
  | Largest tracked array allocation on task 0 so far         :           0.397 MB  when allocating gradient_basis_wave
  Note:  These values currently only include a subset of arrays which are explicitly tracked.
  The "true" memory usage will be greater.
------------------------------------------------------------

------------------------------------------------------------
          Begin self-consistency iteration #    3

  Date     :  20200710, Time     :  150738.829
------------------------------------------------------------
  Evaluating new KS density.
  Integration grid: deviation in total charge (<rho> - N_e) =   1.421085E-14
  Pulay mixing of updated and previous charge densities.

  Evaluating partitioned Hartree potential by multipole expansion.
  | Analytical far-field extrapolation by fixed multipoles:
  | Hartree multipole sum: apparent total charge =  -0.449040E-03
  Summing up the Hartree potential.
  Time summed over all CPUs for potential: real work        0.282 s, elapsed        0.282 s
  | RMS charge density error from multipole expansion :   0.219487E-01

  Integrating Hamiltonian matrix: batch-based integration.
  Time summed over all CPUs for integration: real work        0.496 s, elapsed        0.496 s

  Updating Kohn-Sham eigenvalues and eigenvectors using ELSI and the ELPA eigensolver.
  Finished Cholesky decomposition
  | Time :     0.000 s
  Finished transformation to standard eigenproblem
  | Time :     0.000 s
  Starting LAPACK eigensolver
  Finished solving standard eigenproblem
  | Time :     0.001 s
  Finished back-transformation of eigenvectors
  | Time :     0.000 s

  Obtaining occupation numbers and chemical potential using ELSI.
  | Chemical potential (Fermi level):    -2.46764465eV
  Highest occupied state (VBM) at     -5.67738299 eV
  | Occupation number:      2.00000000

  Lowest unoccupied state (CBM) at    -1.71146912 eV
  | Occupation number:      0.00000000

  Overall HOMO-LUMO gap:      3.96591386 eV.

  Total energy components:
  | Sum of eigenvalues            :        -180.64611969 Ha       -4915.63102130 eV
  | XC energy correction          :         -42.63246006 Ha       -1160.08826300 eV
  | XC potential correction       :          54.81258398 Ha        1491.52629820 eV
  | Free-atom electrostatic energy:        -146.84723696 Ha       -3995.91662781 eV
  | Hartree energy correction     :          -8.16434318 Ha        -222.16308140 eV
  | vdW energy correction         :           0.00000000 Ha           0.00000000 eV
  | Entropy correction            :           0.00000000 Ha           0.00000000 eV
  | ---------------------------
  | Total energy                  :        -323.47757591 Ha       -8802.27269532 eV
  | Total energy, T -> 0          :        -323.47757591 Ha       -8802.27269532 eV  <-- do not rely on this value for anything but (periodic) metals
  | Electronic free energy        :        -323.47757591 Ha       -8802.27269532 eV

  Derived energy quantities:
  | Kinetic energy                :         323.24375265 Ha        8795.91004057 eV
  | Electrostatic energy          :        -604.08886850 Ha      -16438.09447288 eV
  | Energy correction for multipole
  | error in Hartree potential    :           0.03679261 Ha           1.00117780 eV
  | Sum of eigenvalues per atom                           :        -378.12546318 eV
  | Total energy (T->0) per atom                          :        -677.09789964 eV  <-- do not rely on this value for anything but (periodic) metals
  | Electronic free energy per atom                       :        -677.09789964 eV

  Self-consistency convergence accuracy:
  | Change of charge density      :  0.2069E+00
  | Change of sum of eigenvalues  :  0.3560E+02 eV
  | Change of total energy        :  0.3570E+00 eV

  End self-consistency iteration #     3       :  max(cpu_time)    wall_clock(cpu1)
  | Time for this iteration                    :        1.184 s           1.185 s
  | Charge density update                      :        0.387 s           0.387 s
  | Density mixing                             :        0.008 s           0.008 s
  | Hartree multipole update                   :        0.009 s           0.009 s
  | Hartree multipole summation                :        0.283 s           0.283 s
  | Integration                                :        0.495 s           0.496 s
  | Solution of K.-S. eqns.                    :        0.002 s           0.002 s
  | Total energy evaluation                    :        0.000 s           0.000 s

  Partial memory accounting:
  | Current value for overall tracked memory usage on task 0  :           0.166 MB
  | Peak value for overall tracked memory usage on task 0     :           0.695 MB after allocating gradient_basis_wave
  | Largest tracked array allocation on task 0 so far         :           0.397 MB  when allocating gradient_basis_wave
  Note:  These values currently only include a subset of arrays which are explicitly tracked.
  The "true" memory usage will be greater.
------------------------------------------------------------

------------------------------------------------------------
          Begin self-consistency iteration #    4

  Date     :  20200710, Time     :  150740.016
------------------------------------------------------------
  Evaluating new KS density.
  Integration grid: deviation in total charge (<rho> - N_e) =   2.131628E-14
  Pulay mixing of updated and previous charge densities.

  Evaluating partitioned Hartree potential by multipole expansion.
  | Analytical far-field extrapolation by fixed multipoles:
  | Hartree multipole sum: apparent total charge =  -0.476830E-03
  Summing up the Hartree potential.
  Time summed over all CPUs for potential: real work        0.282 s, elapsed        0.282 s
  | RMS charge density error from multipole expansion :   0.254879E-01

  Integrating Hamiltonian matrix: batch-based integration.
  Time summed over all CPUs for integration: real work        0.494 s, elapsed        0.494 s

  Updating Kohn-Sham eigenvalues and eigenvectors using ELSI and the ELPA eigensolver.
  Finished Cholesky decomposition
  | Time :     0.000 s
  Finished transformation to standard eigenproblem
  | Time :     0.000 s
  Starting LAPACK eigensolver
  Finished solving standard eigenproblem
  | Time :     0.002 s
  Finished back-transformation of eigenvectors
  | Time :     0.000 s

  Obtaining occupation numbers and chemical potential using ELSI.
  | Chemical potential (Fermi level):    -2.36903516eV
  Highest occupied state (VBM) at     -5.50406836 eV
  | Occupation number:      2.00000000

  Lowest unoccupied state (CBM) at    -1.61537151 eV
  | Occupation number:      0.00000000

  Overall HOMO-LUMO gap:      3.88869685 eV.

  Total energy components:
  | Sum of eigenvalues            :        -180.51111716 Ha       -4911.95741544 eV
  | XC energy correction          :         -42.67044506 Ha       -1161.12188731 eV
  | XC potential correction       :          54.86031816 Ha        1492.82521116 eV
  | Free-atom electrostatic energy:        -146.84723696 Ha       -3995.91662781 eV
  | Hartree energy correction     :          -8.30801807 Ha        -226.07267403 eV
  | vdW energy correction         :           0.00000000 Ha           0.00000000 eV
  | Entropy correction            :           0.00000000 Ha           0.00000000 eV
  | ---------------------------
  | Total energy                  :        -323.47649909 Ha       -8802.24339344 eV
  | Total energy, T -> 0          :        -323.47649909 Ha       -8802.24339344 eV  <-- do not rely on this value for anything but (periodic) metals
  | Electronic free energy        :        -323.47649909 Ha       -8802.24339344 eV

  Derived energy quantities:
  | Kinetic energy                :         322.83513466 Ha        8784.79097941 eV
  | Electrostatic energy          :        -603.64118869 Ha      -16425.91248554 eV
  | Energy correction for multipole
  | error in Hartree potential    :           0.04090845 Ha           1.11317565 eV
  | Sum of eigenvalues per atom                           :        -377.84287811 eV
  | Total energy (T->0) per atom                          :        -677.09564565 eV  <-- do not rely on this value for anything but (periodic) metals
  | Electronic free energy per atom                       :        -677.09564565 eV

  Self-consistency convergence accuracy:
  | Change of charge density      :  0.6913E-01
  | Change of sum of eigenvalues  :  0.3674E+01 eV
  | Change of total energy        :  0.2930E-01 eV

  End self-consistency iteration #     4       :  max(cpu_time)    wall_clock(cpu1)
  | Time for this iteration                    :        1.184 s           1.191 s
  | Charge density update                      :        0.387 s           0.394 s
  | Density mixing                             :        0.010 s           0.009 s
  | Hartree multipole update                   :        0.009 s           0.009 s
  | Hartree multipole summation                :        0.282 s           0.283 s
  | Integration                                :        0.494 s           0.494 s
  | Solution of K.-S. eqns.                    :        0.002 s           0.002 s
  | Total energy evaluation                    :        0.000 s           0.000 s

  Partial memory accounting:
  | Current value for overall tracked memory usage on task 0  :           0.166 MB
  | Peak value for overall tracked memory usage on task 0     :           0.696 MB after allocating gradient_basis_wave
  | Largest tracked array allocation on task 0 so far         :           0.397 MB  when allocating gradient_basis_wave
  Note:  These values currently only include a subset of arrays which are explicitly tracked.
  The "true" memory usage will be greater.
------------------------------------------------------------

------------------------------------------------------------
          Begin self-consistency iteration #    5

  Date     :  20200710, Time     :  150741.208
------------------------------------------------------------
  Evaluating new KS density.
  Integration grid: deviation in total charge (<rho> - N_e) =  -2.131628E-14
  Pulay mixing of updated and previous charge densities.

  Evaluating partitioned Hartree potential by multipole expansion.
  | Analytical far-field extrapolation by fixed multipoles:
  | Hartree multipole sum: apparent total charge =  -0.471161E-03
  Summing up the Hartree potential.
  Time summed over all CPUs for potential: real work        0.282 s, elapsed        0.282 s
  | RMS charge density error from multipole expansion :   0.252835E-01

  Integrating Hamiltonian matrix: batch-based integration.
  Time summed over all CPUs for integration: real work        0.495 s, elapsed        0.495 s

  Updating Kohn-Sham eigenvalues and eigenvectors using ELSI and the ELPA eigensolver.
  Finished Cholesky decomposition
  | Time :     0.000 s
  Finished transformation to standard eigenproblem
  | Time :     0.000 s
  Starting LAPACK eigensolver
  Finished solving standard eigenproblem
  | Time :     0.001 s
  Finished back-transformation of eigenvectors
  | Time :     0.000 s

  Obtaining occupation numbers and chemical potential using ELSI.
  | Chemical potential (Fermi level):    -2.42973011eV
  Highest occupied state (VBM) at     -5.59236480 eV
  | Occupation number:      2.00000000

  Lowest unoccupied state (CBM) at    -1.71246182 eV
  | Occupation number:      0.00000000

  Overall HOMO-LUMO gap:      3.87990298 eV.

  Total energy components:
  | Sum of eigenvalues            :        -180.71784965 Ha       -4917.58289272 eV
  | XC energy correction          :         -42.64525899 Ha       -1160.43653957 eV
  | XC potential correction       :          54.82763463 Ha        1491.93584717 eV
  | Free-atom electrostatic energy:        -146.84723696 Ha       -3995.91662781 eV
  | Hartree energy correction     :          -8.09351240 Ha        -220.23567801 eV
  | vdW energy correction         :           0.00000000 Ha           0.00000000 eV
  | Entropy correction            :           0.00000000 Ha           0.00000000 eV
  | ---------------------------
  | Total energy                  :        -323.47622338 Ha       -8802.23589093 eV
  | Total energy, T -> 0          :        -323.47622338 Ha       -8802.23589093 eV  <-- do not rely on this value for anything but (periodic) metals
  | Electronic free energy        :        -323.47622338 Ha       -8802.23589093 eV

  Derived energy quantities:
  | Kinetic energy                :         322.70797119 Ha        8781.33068519 eV
  | Electrostatic energy          :        -603.53893557 Ha      -16423.13003656 eV
  | Energy correction for multipole
  | error in Hartree potential    :           0.04027999 Ha           1.09607418 eV
  | Sum of eigenvalues per atom                           :        -378.27560713 eV
  | Total energy (T->0) per atom                          :        -677.09506853 eV  <-- do not rely on this value for anything but (periodic) metals
  | Electronic free energy per atom                       :        -677.09506853 eV

  Self-consistency convergence accuracy:
  | Change of charge density      :  0.2025E-01
  | Change of sum of eigenvalues  : -0.5625E+01 eV
  | Change of total energy        :  0.7503E-02 eV

  End self-consistency iteration #     5       :  max(cpu_time)    wall_clock(cpu1)
  | Time for this iteration                    :        1.186 s           1.187 s
  | Charge density update                      :        0.386 s           0.387 s
  | Density mixing                             :        0.011 s           0.011 s
  | Hartree multipole update                   :        0.009 s           0.009 s
  | Hartree multipole summation                :        0.283 s           0.282 s
  | Integration                                :        0.495 s           0.496 s
  | Solution of K.-S. eqns.                    :        0.002 s           0.002 s
  | Total energy evaluation                    :        0.000 s           0.000 s

  Partial memory accounting:
  | Current value for overall tracked memory usage on task 0  :           0.166 MB
  | Peak value for overall tracked memory usage on task 0     :           0.696 MB after allocating gradient_basis_wave
  | Largest tracked array allocation on task 0 so far         :           0.397 MB  when allocating gradient_basis_wave
  Note:  These values currently only include a subset of arrays which are explicitly tracked.
  The "true" memory usage will be greater.
------------------------------------------------------------

------------------------------------------------------------
          Begin self-consistency iteration #    6

  Date     :  20200710, Time     :  150742.396
------------------------------------------------------------
  Evaluating new KS density.
  Integration grid: deviation in total charge (<rho> - N_e) =  -7.105427E-15
  Pulay mixing of updated and previous charge densities.

  Evaluating partitioned Hartree potential by multipole expansion.
  | Analytical far-field extrapolation by fixed multipoles:
  | Hartree multipole sum: apparent total charge =  -0.474845E-03
  Summing up the Hartree potential.
  Time summed over all CPUs for potential: real work        0.282 s, elapsed        0.282 s
  | RMS charge density error from multipole expansion :   0.257600E-01

  Integrating Hamiltonian matrix: batch-based integration.
  Time summed over all CPUs for integration: real work        0.494 s, elapsed        0.494 s

  Updating Kohn-Sham eigenvalues and eigenvectors using ELSI and the ELPA eigensolver.
  Finished Cholesky decomposition
  | Time :     0.000 s
  Finished transformation to standard eigenproblem
  | Time :     0.000 s
  Starting LAPACK eigensolver
  Finished solving standard eigenproblem
  | Time :     0.001 s
  Finished back-transformation of eigenvectors
  | Time :     0.000 s

  Obtaining occupation numbers and chemical potential using ELSI.
  | Chemical potential (Fermi level):    -2.41308862eV
  Highest occupied state (VBM) at     -5.55053312 eV
  | Occupation number:      2.00000000

  Lowest unoccupied state (CBM) at    -1.71816762 eV
  | Occupation number:      0.00000000

  Overall HOMO-LUMO gap:      3.83236550 eV.

  Total energy components:
  | Sum of eigenvalues            :        -180.69573827 Ha       -4916.98121154 eV
  | XC energy correction          :         -42.64760792 Ha       -1160.50045710 eV
  | XC potential correction       :          54.83065722 Ha        1492.01809611 eV
  | Free-atom electrostatic energy:        -146.84723696 Ha       -3995.91662781 eV
  | Hartree energy correction     :          -8.11626100 Ha        -220.85469883 eV
  | vdW energy correction         :           0.00000000 Ha           0.00000000 eV
  | Entropy correction            :           0.00000000 Ha           0.00000000 eV
  | ---------------------------
  | Total energy                  :        -323.47618693 Ha       -8802.23489917 eV
  | Total energy, T -> 0          :        -323.47618693 Ha       -8802.23489917 eV  <-- do not rely on this value for anything but (periodic) metals
  | Electronic free energy        :        -323.47618693 Ha       -8802.23489917 eV

  Derived energy quantities:
  | Kinetic energy                :         322.64123483 Ha        8779.51469657 eV
  | Electrostatic energy          :        -603.46981384 Ha      -16421.24913864 eV
  | Energy correction for multipole
  | error in Hartree potential    :           0.04071425 Ha           1.10789119 eV
  | Sum of eigenvalues per atom                           :        -378.22932396 eV
  | Total energy (T->0) per atom                          :        -677.09499224 eV  <-- do not rely on this value for anything but (periodic) metals
  | Electronic free energy per atom                       :        -677.09499224 eV

  Self-consistency convergence accuracy:
  | Change of charge density      :  0.1063E-01
  | Change of sum of eigenvalues  :  0.6017E+00 eV
  | Change of total energy        :  0.9918E-03 eV

  End self-consistency iteration #     6       :  max(cpu_time)    wall_clock(cpu1)
  | Time for this iteration                    :        1.187 s           1.188 s
  | Charge density update                      :        0.387 s           0.387 s
  | Density mixing                             :        0.012 s           0.012 s
  | Hartree multipole update                   :        0.009 s           0.009 s
  | Hartree multipole summation                :        0.283 s           0.283 s
  | Integration                                :        0.494 s           0.494 s
  | Solution of K.-S. eqns.                    :        0.002 s           0.002 s
  | Total energy evaluation                    :        0.000 s           0.000 s

  Partial memory accounting:
  | Current value for overall tracked memory usage on task 0  :           0.166 MB
  | Peak value for overall tracked memory usage on task 0     :           0.696 MB after allocating gradient_basis_wave
  | Largest tracked array allocation on task 0 so far         :           0.397 MB  when allocating gradient_basis_wave
  Note:  These values currently only include a subset of arrays which are explicitly tracked.
  The "true" memory usage will be greater.
------------------------------------------------------------

------------------------------------------------------------
          Begin self-consistency iteration #    7

  Date     :  20200710, Time     :  150743.584
------------------------------------------------------------
  Evaluating new KS density.
  Integration grid: deviation in total charge (<rho> - N_e) =  -2.842171E-14
  Pulay mixing of updated and previous charge densities.

  Evaluating partitioned Hartree potential by multipole expansion.
  | Analytical far-field extrapolation by fixed multipoles:
  | Hartree multipole sum: apparent total charge =  -0.475121E-03
  Summing up the Hartree potential.
  Time summed over all CPUs for potential: real work        0.282 s, elapsed        0.282 s
  | RMS charge density error from multipole expansion :   0.258503E-01

  Integrating Hamiltonian matrix: batch-based integration.
  Time summed over all CPUs for integration: real work        0.496 s, elapsed        0.496 s

  Updating Kohn-Sham eigenvalues and eigenvectors using ELSI and the ELPA eigensolver.
  Finished Cholesky decomposition
  | Time :     0.000 s
  Finished transformation to standard eigenproblem
  | Time :     0.000 s
  Starting LAPACK eigensolver
  Finished solving standard eigenproblem
  | Time :     0.001 s
  Finished back-transformation of eigenvectors
  | Time :     0.000 s

[...]
  |   Hirshfeld dipole moment :      0.05666058
  |   Hirshfeld second moments:      0.01968902      -0.03035066      -0.01861262
  |                                 -0.03035066      -0.02169725       0.00770280
  |                                 -0.01861262       0.00770280      -0.01562354
  ----------------------------------------------------------------------
  | Atom    12: O
  |   Hirshfeld charge        :     -0.15536503
  |   Free atom volume        :     23.61338643
  |   Hirshfeld volume        :     20.65892894
  |   Hirshfeld dipole vector :      0.00504872       0.03945089       0.00848534
  |   Hirshfeld dipole moment :      0.04066771
  |   Hirshfeld second moments:      0.11681151       0.00116772      -0.01238345
  |                                  0.00116772       0.03224333       0.00815842
  |                                 -0.01238345       0.00815842       0.04265439
  ----------------------------------------------------------------------
  | Atom    13: H
  |   Hirshfeld charge        :      0.18989927
  |   Free atom volume        :      9.95071624
  |   Hirshfeld volume        :      5.97593697
  |   Hirshfeld dipole vector :     -0.12177008       0.03157129       0.03045000
  |   Hirshfeld dipole moment :      0.12942914
  |   Hirshfeld second moments:      0.12671631       0.00455004      -0.00274972
  |                                  0.00455004       0.11687190       0.00443087
  |                                 -0.00274972       0.00443087       0.11681113
  ----------------------------------------------------------------------


  Total energy components:
  | Sum of eigenvalues            :        -180.70001700 Ha       -4917.09764186 eV
  | XC energy correction          :         -42.64378318 Ha       -1160.39638071 eV
  | XC potential correction       :          54.82579500 Ha        1491.88578831 eV
  | Free-atom electrostatic energy:        -146.84723696 Ha       -3995.91662781 eV
  | Hartree energy correction     :          -8.11091877 Ha        -220.70932943 eV
  | vdW energy correction         :          -0.00336066 Ha          -0.09144810 eV
  | Entropy correction            :           0.00000000 Ha           0.00000000 eV
  | ---------------------------
  | Total energy                  :        -323.47952158 Ha       -8802.32563961 eV
  | Total energy, T -> 0          :        -323.47952158 Ha       -8802.32563961 eV  <-- do not rely on this value for anything but (periodic) metals
  | Electronic free energy        :        -323.47952158 Ha       -8802.32563961 eV

  Derived energy quantities:
  | Kinetic energy                :         322.60205621 Ha        8778.44859204 eV
  | Electrostatic energy          :        -603.43443395 Ha      -16420.28640283 eV
  | Energy correction for multipole
  | error in Hartree potential    :           0.04070353 Ha           1.10759934 eV
  | Sum of eigenvalues per atom                           :        -378.23828014 eV
  | Total energy (T->0) per atom                          :        -677.10197228 eV  <-- do not rely on this value for anything but (periodic) metals
  | Electronic free energy per atom                       :        -677.10197228 eV

  atomic forces [eV/Ang]:
  -----------------------
  atom #    1
   Hellmann-Feynman              :  0.537571E+00 -0.354372E+00  0.944609E+00
   Ionic forces                  :  0.000000E+00  0.000000E+00  0.000000E+00
   Multipole                     : -0.950281E-01  0.365811E+00 -0.290641E+00
   Pulay + GGA                   : -0.975336E+00  0.841879E-01 -0.134924E+01
   Van der Waals                 :  0.695424E-02  0.529494E-02 -0.246645E-02
   ----------------------------------------------------------------
   Total forces(   1)            : -0.525839E+00  0.100922E+00 -0.697735E+00
  atom #    2
   Hellmann-Feynman              :  0.384684E+00 -0.354746E-02  0.120454E+00
   Ionic forces                  :  0.000000E+00  0.000000E+00  0.000000E+00
   Multipole                     :  0.172234E+00  0.377713E-01 -0.388091E-01
   Pulay + GGA                   : -0.157304E+00  0.260309E-01 -0.251170E-01
   Van der Waals                 :  0.596817E-02 -0.277421E-02 -0.581418E-02
   ----------------------------------------------------------------
   Total forces(   2)            :  0.405582E+00  0.574805E-01  0.507136E-01
  atom #    3
   Hellmann-Feynman              :  0.896406E+01  0.226128E+01 -0.550227E+01
   Ionic forces                  :  0.000000E+00  0.000000E+00  0.000000E+00
   Multipole                     : -0.249967E+00  0.195253E+00 -0.122598E+01
   Pulay + GGA                   : -0.810020E+01 -0.228208E+01  0.727317E+01
   Van der Waals                 :  0.432153E-02 -0.442483E-02 -0.907772E-02
   ----------------------------------------------------------------
   Total forces(   3)            :  0.618212E+00  0.170028E+00  0.535837E+00
  atom #    4
   Hellmann-Feynman              : -0.191449E+00  0.335412E-01 -0.116880E+00
   Ionic forces                  :  0.000000E+00  0.000000E+00  0.000000E+00
   Multipole                     : -0.658983E-01 -0.620692E-01 -0.665002E-01
   Pulay + GGA                   :  0.143456E+00  0.170160E+00  0.373043E-01
   Van der Waals                 : -0.106278E-04  0.506166E-02 -0.234098E-02
   ----------------------------------------------------------------
   Total forces(   4)            : -0.113902E+00  0.146694E+00 -0.148417E+00
  atom #    5
   Hellmann-Feynman              : -0.344446E+00 -0.409583E-01 -0.499952E-01
   Ionic forces                  :  0.000000E+00  0.000000E+00  0.000000E+00
   Multipole                     : -0.803583E-01  0.377746E-01 -0.593228E-01
   Pulay + GGA                   :  0.214849E+00 -0.967630E-01 -0.331742E-01
   Van der Waals                 : -0.201986E-02 -0.860398E-02 -0.508920E-02
   ----------------------------------------------------------------
   Total forces(   5)            : -0.211975E+00 -0.108551E+00 -0.147581E+00
  atom #    6
   Hellmann-Feynman              :  0.144723E+00 -0.471740E+00  0.286488E+00
   Ionic forces                  :  0.000000E+00  0.000000E+00  0.000000E+00
   Multipole                     : -0.109552E+00  0.556768E+00  0.274439E+00
   Pulay + GGA                   :  0.258078E+00 -0.524686E+00 -0.423190E+00
   Van der Waals                 : -0.430385E-02  0.248280E-02 -0.306788E-02
   ----------------------------------------------------------------
   Total forces(   6)            :  0.288945E+00 -0.437175E+00  0.134669E+00
  atom #    7
   Hellmann-Feynman              : -0.262008E+00 -0.563126E-01 -0.323842E-01
   Ionic forces                  :  0.000000E+00  0.000000E+00  0.000000E+00
   Multipole                     : -0.117447E+00  0.490507E-01  0.288746E-01
   Pulay + GGA                   :  0.102163E+00  0.248761E-01  0.207880E-01
   Van der Waals                 : -0.297840E-02  0.810034E-03  0.733409E-02
   ----------------------------------------------------------------
   Total forces(   7)            : -0.280271E+00  0.184243E-01  0.246125E-01
  atom #    8
   Hellmann-Feynman              :  0.785935E-01 -0.129140E-02  0.156464E+00
   Ionic forces                  :  0.000000E+00  0.000000E+00  0.000000E+00
   Multipole                     :  0.104087E-01  0.621564E-01  0.121802E+00
   Pulay + GGA                   : -0.405742E-01 -0.437244E-01 -0.115523E+00
   Van der Waals                 : -0.329153E-02  0.111316E-01  0.679659E-03
   ----------------------------------------------------------------
   Total forces(   8)            :  0.451365E-01  0.282722E-01  0.163423E+00
  atom #    9
   Hellmann-Feynman              :  0.979051E-01  0.643692E-01 -0.181998E+00
   Ionic forces                  :  0.000000E+00  0.000000E+00  0.000000E+00
   Multipole                     :  0.202662E-01  0.130562E+00 -0.116803E-01
   Pulay + GGA                   : -0.305114E-01 -0.100611E+00  0.469586E-01
   Van der Waals                 :  0.418548E-04  0.723668E-02  0.843784E-02
   ----------------------------------------------------------------
   Total forces(   9)            :  0.877017E-01  0.101557E+00 -0.138282E+00
  atom #   10
   Hellmann-Feynman              :  0.332971E+01  0.586159E+01  0.237801E+01
   Ionic forces                  :  0.000000E+00  0.000000E+00  0.000000E+00
   Multipole                     :  0.111384E+00 -0.292913E-01  0.247316E+00
   Pulay + GGA                   : -0.992699E+00 -0.363394E+01 -0.606017E+00
   Van der Waals                 :  0.358617E-02 -0.141024E-01  0.223769E-02
   ----------------------------------------------------------------
   Total forces(  10)            :  0.245198E+01  0.218426E+01  0.202155E+01
  atom #   11
   Hellmann-Feynman              :  0.392846E+01 -0.225394E+01  0.137334E+02
   Ionic forces                  :  0.000000E+00  0.000000E+00  0.000000E+00
   Multipole                     :  0.548699E-01 -0.639272E+00  0.780254E+00
   Pulay + GGA                   : -0.319516E+01  0.356194E+01 -0.135104E+02
   Van der Waals                 : -0.157251E-02 -0.116232E-01  0.235037E-02
   ----------------------------------------------------------------
   Total forces(  11)            :  0.786591E+00  0.657108E+00  0.100559E+01
  atom #   12
   Hellmann-Feynman              :  0.171634E+01 -0.111437E+02 -0.112147E+02
   Ionic forces                  :  0.000000E+00  0.000000E+00  0.000000E+00
   Multipole                     : -0.663781E+00 -0.144148E+01 -0.433520E+00
   Pulay + GGA                   : -0.374614E+01  0.104830E+02  0.922924E+01
   Van der Waals                 : -0.270974E-04  0.823891E-02  0.327712E-02
   ----------------------------------------------------------------
   Total forces(  12)            : -0.269361E+01 -0.209398E+01 -0.241568E+01
  atom #   13
   Hellmann-Feynman              : -0.116595E+01 -0.659519E+00 -0.291607E+00
   Ionic forces                  :  0.000000E+00  0.000000E+00  0.000000E+00
   Multipole                     : -0.526524E-01  0.104288E-01  0.489534E-02
   Pulay + GGA                   :  0.360943E+00 -0.177411E+00 -0.107943E+00
   Van der Waals                 : -0.666810E-02  0.127198E-02  0.353965E-02
   ----------------------------------------------------------------
   Total forces(  13)            : -0.864326E+00 -0.825230E+00 -0.391116E+00

  Timings for VdW correction (Tkatchenko-Scheffler 2009 or later):
  | CPU time:        0.090 s, Wall clock time:        0.091 s.
  Removing unitary transformations (pure translations, rotations) from forces on atoms.
  Atomic forces before filtering:
  | Net force on center of mass :  -0.576908E-02 -0.193649E-03 -0.241473E-02 eV/A
  | Net torque on center of mass:  -0.670148E-02  0.439825E-02 -0.319886E-02 eV
  Atomic forces after filtering:
  | Net force on center of mass :  -0.356812E-15 -0.356812E-15  0.490617E-15 eV/A
  | Net torque on center of mass:   0.103849E-14 -0.283225E-15 -0.113290E-14 eV

  Energy and forces in a compact form:
  | Total energy uncorrected      :         -0.880232563960718E+04 eV
  | Total energy corrected        :         -0.880232563960718E+04 eV  <-- do not rely on this value for anything but (periodic) metals
  | Electronic free energy        :         -0.880232563960718E+04 eV
  Total atomic forces (unitary forces cleaned) [eV/Ang]:
  |   1         -0.525378769396869E+00          0.101025937700469E+00         -0.697438615448361E+00
  |   2          0.406042070806784E+00          0.577079691569681E-01          0.511960712015742E-01
  |   3          0.618912522511971E+00          0.170316878784324E+00          0.536052400160935E+00
  |   4         -0.113059266104358E+00          0.146980199237407E+00         -0.148419494583981E+00
  |   5         -0.211336978274611E+00         -0.108329429060520E+00         -0.147375476069154E+00
  |   6          0.289138779389276E+00         -0.437249926185808E+00          0.135094778869089E+00
  |   7         -0.280082468950477E+00          0.182240877820183E-01          0.248566375484524E-01
  |   8          0.451536585227232E-01          0.280643050429578E-01          0.163911488989961E+00
  |   9          0.878802528626077E-01          0.101608298704046E+00         -0.137643231458567E+00
  |  10          0.245245894004703E+01          0.218418971583613E+01          0.202156180168721E+01
  |  11          0.786907343942175E+00          0.656882586220065E+00          0.100560196249434E+01
  |  12         -0.269291688388273E+01         -0.209400939638019E+01         -0.241592815300521E+01
  |  13         -0.863719201473523E+00         -0.825411226837862E+00         -0.391470170386284E+00

  ------------------------------------ 
  Start decomposition of the XC Energy 
  ------------------------------------ 
  X and C from original XC functional choice 
  Hartree-Fock Energy :          0.000000000 Ha              0.000000000 eV
  X Energy            :        -41.042156979 Ha          -1116.813914252 eV
  C Energy            :         -1.601626204 Ha            -43.582466463 eV
  Total XC Energy     :        -42.643783183 Ha          -1160.396380715 eV
  ------------------------------------ 
  LDA X and C from self-consistent density 
  X Energy LDA        :        -37.262314960 Ha          -1013.959179746 eV
  C Energy LDA        :         -3.139011087 Ha            -85.416837626 eV
  ------------------------------------ 
  End decomposition of the XC Energy 
  ------------------------------------ 

------------------------------------------------------------

------------------------------------------------------------------------------
  Final output of selected total energy values:

  The following output summarizes some interesting total energy values
  at the end of a run (AFTER all relaxation, molecular dynamics, etc.).

  | Total energy of the DFT / Hartree-Fock s.c.f. calculation      :          -8802.325639607 eV
  | Final zero-broadening corrected energy (caution - metals only) :          -8802.325639607 eV
  | For reference only, the value of 1 Hartree used in FHI-aims is :             27.211384500 eV

  Before relying on these values, please be sure to understand exactly which
  total energy value is referred to by a given number. Different objects may
  all carry the same name 'total energy'. Definitions:

  Total energy of the DFT / Hartree-Fock s.c.f. calculation:
  | Note that this energy does not include ANY quantities calculated after the
  | s.c.f. cycle, in particular not ANY RPA, MP2, etc. many-body perturbation terms.

  Final zero-broadening corrected energy:
  | For metallic systems only, a broadening of the occupation numbers at the Fermi
  | level can be extrapolated back to zero broadening by an electron-gas inspired
  | formula. For all systems that are not real metals, this value can be
  | meaningless and should be avoided.

------------------------------------------------------------------------------
  Methods described in the following list of references were used in this FHI-aims run.
  If you publish the results, please make sure to cite these reference if they apply.
  FHI-aims is an academic code, and for our developers (often, Ph.D. students
  and postdocs), scientific credit in the community is essential.
  Thank you for helping us!

  For any use of FHI-aims, please cite:

    Volker Blum, Ralf Gehrke, Felix Hanke, Paula Havu, Ville Havu,
    Xinguo Ren, Karsten Reuter, and Matthias Scheffler
    'Ab initio molecular simulations with numeric atom-centered orbitals'
    Computer Physics Communications 180, 2175-2196 (2009)
    http://dx.doi.org/10.1016/j.cpc.2009.06.022


  The scalable eigensolver library ELPA was used in your run.
  ELPA is essential especially for large systems on hundreds or thousands of CPUs.
  For ELPA, please cite:

    Andreas Marek, Volker Blum, Rainer Johanni, Ville Havu, Bruno Lang,
    Thomas Auckenthaler, Alexander Heinecke, Hans-Joachim Bungartz, and Hermann Lederer,
    'The ELPA Library - Scalable Parallel Eigenvalue Solutions
    for Electronic Structure Theory and Computational Science'
    The Journal of Physics: Condensed Matter 26, 213201 (2014).
    http://dx.doi.org/10.1088/0953-8984/26/21/213201


  The ELSI infrastructure was used in your run to solve the Kohn-Sham electronic structure.
  Please check out http://elsi-interchange.org to learn more.
  If scalability is important for your project, please acknowledge ELSI by citing:

    V. W-z. Yu, F. Corsetti, A. Garcia, W. P. Huhn, M. Jacquelin, W. Jia,
    B. Lange, L. Lin, J. Lu, W. Mi, A. Seifitokaldani, A. Vazquez-Mayagoitia,
    C. Yang, H. Yang, and V. Blum
    'ELSI: A unified software interface for Kohn-Sham electronic structure solvers'
    Computer Physics Communications 222, 267-285 (2018).
    http://dx.doi.org/10.1016/j.cpc.2017.09.007


  For the real-space grid partitioning and parallelization used in this calculation, please cite:

    Ville Havu, Volker Blum, Paula Havu, and Matthias Scheffler,
    'Efficient O(N) integration for all-electron electronic structure calculation'
    'using numerically tabulated basis functions'
    Journal of Computational Physics 228, 8367-8379 (2009).
    http://dx.doi.org/10.1016/j.jcp.2009.08.008

  Of course, there are many other important community references, e.g., those cited in the
  above references. Our list is limited to references that describe implementations in the
  FHI-aims code. The reason is purely practical (length of this list) - please credit others as well.

------------------------------------------------------------
          Leaving FHI-aims.
          Date     :  20200710, Time     :  150757.866

          Computational steps:
          | Number of self-consistency cycles          :           16
          | Number of SCF (re)initializations          :            1

          Detailed time accounting                     :  max(cpu_time)    wall_clock(cpu1)
          | Total time                                 :       22.687 s          22.750 s
          | Preparation time                           :        0.149 s           0.151 s
          | Boundary condition initalization           :        0.000 s           0.000 s
          | Grid partitioning                          :        0.112 s           0.112 s
          | Preloading free-atom quantities on grid    :        0.002 s           0.003 s
          | Free-atom superposition energy             :        0.084 s           0.084 s
          | Total time for integrations                :        8.639 s           8.650 s
          | Total time for solution of K.-S. equations :        0.037 s           0.039 s
          | Total time for density & force components  :        7.153 s           7.168 s
          | Total time for mixing                      :        0.214 s           0.216 s
          | Total time for Hartree multipole update    :        0.141 s           0.145 s
          | Total time for Hartree multipole sum       :        5.755 s           5.754 s
          | Total time for total energy evaluation     :        0.003 s           0.001 s
          | Total time for vdW correction              :        0.090 s           0.091 s

          Partial memory accounting:
          | Residual value for overall tracked memory usage across tasks :           0.000 MB (should be 0.000 MB)
          | Peak values for overall tracked memory usage (after allocating hessian_basis_wave):
          |   Minimum:        1.622 MB (on task 1)
          |   Maximum:        1.622 MB (on task 1)
          |   Average:        1.622 MB
          | Largest tracked array allocation (hessian_basis_wave):
          |   Minimum:        0.794 MB (on task 1)
          |   Maximum:        0.794 MB (on task 1)
          |   Average:        0.794 MB
          Note:  These values currently only include a subset of arrays which are explicitly tracked.
          The "true" memory usage will be greater.

          Have a nice day.
------------------------------------------------------------
