  MPI-parallelism will be employed.
------------------------------------------------------------
          Invoking FHI-aims ...
          Version 171221_1
          Compiled on 2019/09/09 at 14:39:39 on host puhti-login2.bullx.

          When using FHI-aims, please cite the following reference:

          Volker Blum, Ralf Gehrke, Felix Hanke, Paula Havu,
          Ville Havu, Xinguo Ren, Karsten Reuter, and Matthias Scheffler,
          'Ab Initio Molecular Simulations with Numeric Atom-Centered Orbitals',
          Computer Physics Communications 180, 2175-2196 (2009)

          For any questions about FHI-aims, please visit the aimsclub website
          with its forums and wiki. Contributions to both the forums and the
          wiki are warmly encouraged - they are for you, and everyone is welcome there.

------------------------------------------------------------



  Date     :  20200710, Time     :  145812.815
  Time zero on CPU 1             :   0.113710000000000E-01  s.
  Internal wall clock time zero  :           363625092.815  s.

  FHI-aims created a unique identifier for this run for later identification
  aims_uuid : D4B1C62C-EE97-417A-A70E-0F37D7D7EC00

  Using        1 parallel tasks.
  Task        0 on host r18c44.bullx reporting.

  Performing system and environment tests:
  | Environment variable OMP_NUM_THREADS correctly set to 1.
  | Stacksize not measured: no C compiler
  | Checking for scalapack...
  | Testing pdtran()...
  | All pdtran() tests passed.

  Obtaining array dimensions for all initial allocations:
  
  -----------------------------------------------------------------------
  Parsing control.in (first pass over file, find array dimensions only).
  The contents of control.in will be repeated verbatim below
  unless switched off by setting 'verbatim_writeout .false.' .
  in the first line of control.in .
  -----------------------------------------------------------------------
  
  #########################################################################################
  #
  #  Volker Blum, FHI 2009 : Test run input file control.in for simple H2O
  #
  #########################################################################################
  #
  #  Physical model
  #
    xc                 pbe
    vdw_correction_hirshfeld
    spin               none
    relativistic       none
    charge             0.
  #
  #  SCF convergence
  #
    occupation_type    gaussian 0.01
    mixer              pulay
      n_max_pulay        10
      charge_mix_param   0.2
    sc_accuracy_rho    1E-5
    sc_accuracy_eev    1E-3
    sc_accuracy_etot   1E-6
    sc_accuracy_forces 1E-4
    sc_iter_limit      100
  #
  #  Relaxation
  #
  #  relax_geometry   bfgs 1.e-3
  #
  ################################################################################
  #
  #  FHI-aims code project
  #  VB, Fritz-Haber Institut, 2009
  #
  #  Suggested "light" defaults for H atom (to be pasted into control.in file)
  #  Be sure to double-check any results obtained with these settings for post-processing,
  #  e.g., with the "tight" defaults and larger basis sets.
  #
  ################################################################################
    species        H
  #     global species definitions
      nucleus             1
      mass                1.00794
  #
      l_hartree           4
  #
      cut_pot             3.5  1.5  1.0
      basis_dep_cutoff    1e-4
  #
      radial_base         24 5.0
      radial_multiplier   1
      angular_grids       specified
        division   0.2421   50
        division   0.3822  110
        division   0.4799  194
        division   0.5341  302
  #      division   0.5626  434
  #      division   0.5922  590
  #      division   0.6542  770
  #      division   0.6868 1202
  #      outer_grid  770
        outer_grid  302
  ################################################################################
  #
  #  Definition of "minimal" basis
  #
  ################################################################################
  #     valence basis states
      valence      1  s   1.
  #     ion occupancy
      ion_occ      1  s   0.5
  ################################################################################
  #
  #  Suggested additional basis functions. For production calculations,
  #  uncomment them one after another (the most important basis functions are
  #  listed first).
  #
  #  Basis constructed for dimers: 0.5 A, 0.7 A, 1.0 A, 1.5 A, 2.5 A
  #
  ################################################################################
  #  "First tier" - improvements: -1014.90 meV to -62.69 meV
       hydro 2 s 2.1
       hydro 2 p 3.5
  #  "Second tier" - improvements: -12.89 meV to -1.83 meV
  #     hydro 1 s 0.85
  #     hydro 2 p 3.7
  #     hydro 2 s 1.2
  #     hydro 3 d 7
  #  "Third tier" - improvements: -0.25 meV to -0.12 meV
  #     hydro 4 f 11.2
  #     hydro 3 p 4.8
  #     hydro 4 d 9
  #     hydro 3 s 3.2
  ################################################################################
  #
  #  FHI-aims code project
  #  VB, Fritz-Haber Institut, 2009
  #
  #  Suggested "light" defaults for C atom (to be pasted into control.in file)
  #  Be sure to double-check any results obtained with these settings for post-processing,
  #  e.g., with the "tight" defaults and larger basis sets.
  #
  ################################################################################
    species        C
  #     global species definitions
      nucleus             6
      mass                12.0107
  #
      l_hartree           4
  #
      cut_pot             3.5  1.5  1.0
      basis_dep_cutoff    1e-4
  #
      radial_base         34 5.0
      radial_multiplier   1
      angular_grids specified
        division   0.3326   50
        division   0.5710  110
        division   0.7727  194
        division   0.8772  302
  #      division   0.9334  434
  #      division   0.9625  590
  #      division   0.9924  770
  #      division   1.0230  974
  #      division   1.4589 1202
  #     outer_grid  974
       outer_grid 302
  ################################################################################
  #
  #  Definition of "minimal" basis
  #
  ################################################################################
  #     valence basis states
      valence      2  s   2.
      valence      2  p   2.
  #     ion occupancy
      ion_occ      2  s   1.
      ion_occ      2  p   1.
  ################################################################################
  #
  #  Suggested additional basis functions. For production calculations,
  #  uncomment them one after another (the most important basis functions are
  #  listed first).
  #
  #  Constructed for dimers: 1.0 A, 1.25 A, 1.5 A, 2.0 A, 3.0 A
  #
  ################################################################################
  #  "First tier" - improvements: -1214.57 meV to -155.61 meV
       hydro 2 p 1.7
       hydro 3 d 6
       hydro 2 s 4.9
  #  "Second tier" - improvements: -67.75 meV to -5.23 meV
  #     hydro 4 f 9.8
  #     hydro 3 p 5.2
  #     hydro 3 s 4.3
  #     hydro 5 g 14.4
  #     hydro 3 d 6.2
  #  "Third tier" - improvements: -2.43 meV to -0.60 meV
  #     hydro 2 p 5.6
  #     hydro 2 s 1.4
  #     hydro 3 d 4.9
  #     hydro 4 f 11.2
  #  "Fourth tier" - improvements: -0.39 meV to -0.18 meV
  #     hydro 2 p 2.1
  #     hydro 5 g 16.4
  #     hydro 4 d 13.2
  #     hydro 3 s 13.6
  #     hydro 4 f 17.6
  #  Further basis functions - improvements: -0.08 meV and below
  #     hydro 3 s 2
  #     hydro 3 p 6
  #     hydro 4 d 20
  ################################################################################
  #
  #  FHI-aims code project
  #  VB, Fritz-Haber Institut, 2009
  #
  #  Suggested "light" defaults for N atom (to be pasted into control.in file)
  #  Be sure to double-check any results obtained with these settings for post-processing,
  #  e.g., with the "tight" defaults and larger basis sets.
  #
  ################################################################################
    species        N
  #     global species definitions
      nucleus             7
      mass                14.0067
  #
      l_hartree           4
  #
      cut_pot             3.5  1.5  1.0
      basis_dep_cutoff    1e-4
  #
      radial_base         35 5.0
      radial_multiplier   1
      angular_grids       specified
        division   0.2599   50
        division   0.4601  110
        division   0.5885  194
        division   0.6503  302
  #      division   0.6939  434
  #      division   0.7396  590
  #      division   0.7632  770
  #      division   0.8122  974
  #      division   1.1604 1202
  #      outer_grid  974
        outer_grid  302
  ################################################################################
  #
  #  Definition of "minimal" basis
  #
  ################################################################################
  #     valence basis states
      valence      2  s   2.
      valence      2  p   3.
  #     ion occupancy
      ion_occ      2  s   1.
      ion_occ      2  p   2.
  ################################################################################
  #
  #  Suggested additional basis functions. For production calculations,
  #  uncomment them one after another (the most important basis functions are
  #  listed first).
  #
  #  Constructed for dimers: 1.0 A, 1.1 A, 1.5 A, 2.0 A, 3.0 A
  #
  ################################################################################
  #  "First tier" - improvements: -1193.42 meV to -220.60 meV
       hydro 2 p 1.8
       hydro 3 d 6.8
       hydro 3 s 5.8
  #  "Second tier" - improvements: -80.21 meV to -6.86 meV
  #     hydro 4 f 10.8
  #     hydro 3 p 5.8
  #     hydro 1 s 0.8
  #     hydro 5 g 16
  #     hydro 3 d 4.9
  #  "Third tier" - improvements: -4.29 meV to -0.53 meV
  #     hydro 3 s 16
  #     ionic 2 p auto
  #     hydro 3 d 6.6
  #     hydro 4 f 11.6
  #  "Fourth tier" - improvements: -0.75 meV to -0.25 meV
  #     hydro 2 p 4.5
  #     hydro 2 s 2.4
  #     hydro 5 g 14.4
  #     hydro 4 d 14.4
  #     hydro 4 f 16.8
  # Further basis functions - -0.21 meV and below
  #     hydro 3 p 14.8
  #     hydro 3 s 4.4
  #     hydro 3 d 19.6
  #     hydro 5 g 12.8
  ################################################################################
  #
  #  FHI-aims code project
  #  VB, Fritz-Haber Institut, 2009
  #
  #  Suggested "light" defaults for O atom (to be pasted into control.in file)
  #  Be sure to double-check any results obtained with these settings for post-processing,
  #  e.g., with the "tight" defaults and larger basis sets.
  #
  ################################################################################
    species        O
  #     global species definitions
      nucleus             8
      mass                15.9994
  #
      l_hartree           4
  #
      cut_pot             3.5  1.5  1.0
      basis_dep_cutoff    1e-4
  #
      radial_base         36 5.0
      radial_multiplier   1
       angular_grids specified
        division   0.2659   50
        division   0.4451  110
        division   0.6052  194
        division   0.7543  302
  #      division   0.8014  434
  #      division   0.8507  590
  #      division   0.8762  770
  #      division   0.9023  974
  #      division   1.2339 1202
  #      outer_grid 974
        outer_grid 302
  ################################################################################
  #
  #  Definition of "minimal" basis
  #
  ################################################################################
  #     valence basis states
      valence      2  s   2.
      valence      2  p   4.
  #     ion occupancy
      ion_occ      2  s   1.
      ion_occ      2  p   3.
  ################################################################################
  #
  #  Suggested additional basis functions. For production calculations,
  #  uncomment them one after another (the most important basis functions are
  #  listed first).
  #
  #  Constructed for dimers: 1.0 A, 1.208 A, 1.5 A, 2.0 A, 3.0 A
  #
  ################################################################################
  #  "First tier" - improvements: -699.05 meV to -159.38 meV
       hydro 2 p 1.8
       hydro 3 d 7.6
       hydro 3 s 6.4
  #  "Second tier" - improvements: -49.91 meV to -5.39 meV
  #     hydro 4 f 11.6
  #     hydro 3 p 6.2
  #     hydro 3 d 5.6
  #     hydro 5 g 17.6
  #     hydro 1 s 0.75
  #  "Third tier" - improvements: -2.83 meV to -0.50 meV
  #     ionic 2 p auto
  #     hydro 4 f 10.8
  #     hydro 4 d 4.7
  #     hydro 2 s 6.8
  #  "Fourth tier" - improvements: -0.40 meV to -0.12 meV
  #     hydro 3 p 5
  #     hydro 3 s 3.3
  #     hydro 5 g 15.6
  #     hydro 4 f 17.6
  #     hydro 4 d 14
  # Further basis functions - -0.08 meV and below
  #     hydro 3 s 2.1
  #     hydro 4 d 11.6
  #     hydro 3 p 16
  #     hydro 2 s 17.2
  
  -----------------------------------------------------------------------
  Completed first pass over input file control.in .
  -----------------------------------------------------------------------
  
  
  -----------------------------------------------------------------------
  Parsing geometry.in (first pass over file, find array dimensions only).
  The contents of geometry.in will be repeated verbatim below
  unless switched off by setting 'verbatim_writeout .false.' .
  in the first line of geometry.in .
  -----------------------------------------------------------------------
  
  atom  0.00000 0.00000 0.00000 C
  atom  1.09300 0.00000 0.00000 H
  atom  -0.47961 0.00000 -1.41207 N
  atom  0.29268 -0.27577 -2.01981 H
  atom  -1.24762 -0.66270 -1.49641 H
  atom  -0.49584 1.26211 0.72868 C
  atom  -1.58789 1.28919 0.74431 H
  atom  -0.13407 1.27425 1.75947 H
  atom  -0.13407 2.16087 0.22380 H
  atom  -0.39425 -1.28861 0.74398 C
  atom  -0.10189 -1.56493 1.88303 O
  atom  -1.10210 -2.13717 0.06896 O
  atom  -0.57598 -2.14227 -0.74844 H
  
  -----------------------------------------------------------------------
  Completed first pass over input file geometry.in .
  -----------------------------------------------------------------------
  

  Basic array size parameters:
  | Number of species                 :        4
  | Number of atoms                   :       13
  | Max. basis fn. angular momentum   :        2
  | Max. atomic/ionic basis occupied n:        2
  | Max. number of basis fn. types    :        2
  | Max. radial fns per species/type  :        3
  | Max. logarithmic grid size        :     1301
  | Max. radial integration grid size :       36
  | Max. angular integration grid size:      302
  | Max. angular grid division number :        8
  | Radial grid for Hartree potential :     1301
  | Number of spin channels           :        1

------------------------------------------------------------
          Reading file control.in.
------------------------------------------------------------
  XC: Using PBE gradient-corrected functionals.
  Spin treatment: No spin polarisation.
  Non-relativistic treatment of kinetic energy.
  Charge =   0.000000E+00: Neutral system requested explicitly.
  Occupation type: Gaussian broadening, width =   0.100000E-01 eV.
  Using pulay charge density mixing.
  Pulay mixing - number of memorized iterations:   10
  Charge density mixing - mixing parameter:     0.2000
  Convergence accuracy of self-consistent charge density:  0.1000E-04
  Convergence accuracy of sum of eigenvalues:  0.1000E-02
  Convergence accuracy of total energy:  0.1000E-05
  Convergence accuracy of forces:  0.1000E-03
  Maximum number of s.-c. iterations  :   100
 
  Reading configuration options for species H                   .
  | Found nuclear charge :   1.0000
  | Found atomic mass :    1.00794000000000      amu
  | Found l_max for Hartree potential  :   4
  | Found cutoff potl. onset [A], width [A], scale factor :    3.50000    1.50000    1.00000
  | Threshold for basis-dependent cutoff potential is   0.100000E-03
  | Found data for basic radial integration grid :    24 points, outermost radius =    5.000 A
  | Found multiplier for basic radial grid :   1
  | Found angular grid specification: user-specified.
  | Specified grid contains     5 separate shells.
  | Check grid settings after all constraints further below.
  | Found free-atom valence shell :  1 s   1.000
  | No ionic wave fns used. Skipping ion_occ.
  | Found hydrogenic basis function :  2 s   2.100
  | Found hydrogenic basis function :  2 p   3.500
  Species H                   : Missing cutoff potential type.
  Defaulting to exp(1/x)/(1-x)^2 type cutoff potential.
  Species H : No 'logarithmic' tag. Using default grid for free atom:
  | Default logarithmic grid data [bohr] : 0.1000E-03 0.1000E+03 0.1012E+01
  Species H : On-site basis accuracy parameter (for Gram-Schmidt orthonormalisation) not specified.
  Using default value basis_acc =  0.1000000E-03.
  Species H                   : Using default innermost maximum threshold i_radial=  2 for radial functions.
  Species H                   : Default cutoff onset for free atom density etc. : 0.35000000E+01 AA.
  Species H                   : Basic radial grid will be enhanced according to radial_multiplier =   1, to contain    24 grid points.
 
  Reading configuration options for species C                   .
  | Found nuclear charge :   6.0000
  | Found atomic mass :    12.0107000000000      amu
  | Found l_max for Hartree potential  :   4
  | Found cutoff potl. onset [A], width [A], scale factor :    3.50000    1.50000    1.00000
  | Threshold for basis-dependent cutoff potential is   0.100000E-03
  | Found data for basic radial integration grid :    34 points, outermost radius =    5.000 A
  | Found multiplier for basic radial grid :   1
  | Found angular grid specification: user-specified.
  | Specified grid contains     5 separate shells.
  | Check grid settings after all constraints further below.
  | Found free-atom valence shell :  2 s   2.000
  | Found free-atom valence shell :  2 p   2.000
  | No ionic wave fns used. Skipping ion_occ.
  | No ionic wave fns used. Skipping ion_occ.
  | Found hydrogenic basis function :  2 p   1.700
  | Found hydrogenic basis function :  3 d   6.000
  | Found hydrogenic basis function :  2 s   4.900
  Species C                   : Missing cutoff potential type.
  Defaulting to exp(1/x)/(1-x)^2 type cutoff potential.
  Species C : No 'logarithmic' tag. Using default grid for free atom:
  | Default logarithmic grid data [bohr] : 0.1000E-03 0.1000E+03 0.1012E+01
  Species C : On-site basis accuracy parameter (for Gram-Schmidt orthonormalisation) not specified.
  Using default value basis_acc =  0.1000000E-03.
  Species C                   : Using default innermost maximum threshold i_radial=  2 for radial functions.
  Species C                   : Default cutoff onset for free atom density etc. : 0.35000000E+01 AA.
  Species C                   : Basic radial grid will be enhanced according to radial_multiplier =   1, to contain    34 grid points.
 
  Reading configuration options for species N                   .
  | Found nuclear charge :   7.0000
  | Found atomic mass :    14.0067000000000      amu
  | Found l_max for Hartree potential  :   4
  | Found cutoff potl. onset [A], width [A], scale factor :    3.50000    1.50000    1.00000
  | Threshold for basis-dependent cutoff potential is   0.100000E-03
  | Found data for basic radial integration grid :    35 points, outermost radius =    5.000 A
  | Found multiplier for basic radial grid :   1
  | Found angular grid specification: user-specified.
  | Specified grid contains     5 separate shells.
  | Check grid settings after all constraints further below.
  | Found free-atom valence shell :  2 s   2.000
  | Found free-atom valence shell :  2 p   3.000
  | No ionic wave fns used. Skipping ion_occ.
  | No ionic wave fns used. Skipping ion_occ.
  | Found hydrogenic basis function :  2 p   1.800
  | Found hydrogenic basis function :  3 d   6.800
  | Found hydrogenic basis function :  3 s   5.800
  Species N                   : Missing cutoff potential type.
  Defaulting to exp(1/x)/(1-x)^2 type cutoff potential.
  Species N : No 'logarithmic' tag. Using default grid for free atom:
  | Default logarithmic grid data [bohr] : 0.1000E-03 0.1000E+03 0.1012E+01
  Species N : On-site basis accuracy parameter (for Gram-Schmidt orthonormalisation) not specified.
  Using default value basis_acc =  0.1000000E-03.
  Species N                   : Using default innermost maximum threshold i_radial=  2 for radial functions.
  Species N                   : Default cutoff onset for free atom density etc. : 0.35000000E+01 AA.
  Species N                   : Basic radial grid will be enhanced according to radial_multiplier =   1, to contain    35 grid points.
 
  Reading configuration options for species O                   .
  | Found nuclear charge :   8.0000
  | Found atomic mass :    15.9994000000000      amu
  | Found l_max for Hartree potential  :   4
  | Found cutoff potl. onset [A], width [A], scale factor :    3.50000    1.50000    1.00000
  | Threshold for basis-dependent cutoff potential is   0.100000E-03
  | Found data for basic radial integration grid :    36 points, outermost radius =    5.000 A
  | Found multiplier for basic radial grid :   1
  | Found angular grid specification: user-specified.
  | Specified grid contains     5 separate shells.
  | Check grid settings after all constraints further below.
  | Found free-atom valence shell :  2 s   2.000
  | Found free-atom valence shell :  2 p   4.000
  | No ionic wave fns used. Skipping ion_occ.
  | No ionic wave fns used. Skipping ion_occ.
  | Found hydrogenic basis function :  2 p   1.800
  | Found hydrogenic basis function :  3 d   7.600
  | Found hydrogenic basis function :  3 s   6.400
  Species O                   : Missing cutoff potential type.
  Defaulting to exp(1/x)/(1-x)^2 type cutoff potential.
  Species O : No 'logarithmic' tag. Using default grid for free atom:
  | Default logarithmic grid data [bohr] : 0.1000E-03 0.1000E+03 0.1012E+01
  Species O : On-site basis accuracy parameter (for Gram-Schmidt orthonormalisation) not specified.
  Using default value basis_acc =  0.1000000E-03.
  Species O                   : Using default innermost maximum threshold i_radial=  2 for radial functions.
  Species O                   : Default cutoff onset for free atom density etc. : 0.35000000E+01 AA.
  Species O                   : Basic radial grid will be enhanced according to radial_multiplier =   1, to contain    36 grid points.
 
  Finished reading input file 'control.in'. Consistency checks are next.
 
  MPI_IN_PLACE appears to work with this MPI implementation.
  | Keeping use_mpi_in_place .true. (see manual).
  Target number of points in a grid batch is not set. Defaulting to  100
  Method for grid partitioning is not set. Defaulting to parallel hash+maxmin partitioning.
  Batch size limit is not set. Defaulting to    200
  By default, will store active basis functions for each batch.
  If in need of memory, prune_basis_once .false. can be used to disable this option.
  communication_type for Hartree potential was not specified.
  Defaulting to calc_hartree .
  Pulay mixer: Number of initial linear mixing iterations not set.
  Defaulting to    0 iterations.
  Work space size for distributed Hartree potential not set.
  Defaulting to   0.200000E+03 MB.
  Algorithm-dependent basis array size parameters:
  | n_max_pulay                         :       10
  Presetting      1001 iterations before the initial mixing cycle
  is restarted anyway using the sc_init_iter criterion / keyword.
  Presetting a factor      1.000 between actual scf density residual
  and density convergence criterion sc_accuracy_rho below which sc_init_iter
  takes no effect.
  Geometry relaxation not requested: no relaxation will be performed.
  Handling of forces: Unphysical translation and rotation will be removed from forces.
  No accuracy limit for integral partition fn. given. Defaulting to  0.1000E-14.
  No threshold value for u(r) in integrations given. Defaulting to  0.1000E-05.
  No accuracy for occupation numbers given. Defaulting to  0.1000E-12.
  No threshold value for occupation numbers given. Defaulting to  0.0000E+00.
  No accuracy for fermi level given. Defaulting to  0.1000E-19.
  Maximum # of iterations to find E_F not set. Defaulting to  200.
  Preferred method for the eigenvalue solver ('KS_method') not specified in 'control.in'.
  Defaulting to serial version, 'lapack_fast'.
  Will not use alltoall communication since running on < 1024 CPUs.
  Threshold for basis singularities not set.
  Default threshold for basis singularities:  0.1000E-04
  partition_type (choice of integration weights) for integrals was not specified.
  | Using a version of the partition function of Stratmann and coworkers ('stratmann_smoother').
  | At each grid point, the set of atoms used to build the partition table is smoothly restricted to
  | only those atoms whose free-atom density would be non-zero at that grid point.
  Partitioning for Hartree potential was not defined. Using partition_type for integrals.
  | Adjusted default value of keyword multip_moments_threshold to:       0.10000000E-11
  | This value may affect high angular momentum components of the Hartree potential in periodic systems.
  No q(lm)/r^(l+1) cutoff set for long-range Hartree potential.
  | Using default value of  0.100000E-09 .
  | Verify using the multipole_threshold keyword.
  Defaulting to new monopole extrapolation.
  Density update method: automatic selection selected.
------------------------------------------------------------


------------------------------------------------------------
          Reading geometry description geometry.in.
------------------------------------------------------------
  Input structure read successfully.
  The structure contains       13 atoms,  and a total of         48.000 electrons.

  Input geometry:
  | No unit cell requested.
  | Atomic structure:
  |       Atom                x [A]            y [A]            z [A]
  |    1: Species C             0.00000000        0.00000000        0.00000000
  |    2: Species H             1.09300000        0.00000000        0.00000000
  |    3: Species N            -0.47961000        0.00000000       -1.41207000
  |    4: Species H             0.29268000       -0.27577000       -2.01981000
  |    5: Species H            -1.24762000       -0.66270000       -1.49641000
  |    6: Species C            -0.49584000        1.26211000        0.72868000
  |    7: Species H            -1.58789000        1.28919000        0.74431000
  |    8: Species H            -0.13407000        1.27425000        1.75947000
  |    9: Species H            -0.13407000        2.16087000        0.22380000
  |   10: Species C            -0.39425000       -1.28861000        0.74398000
  |   11: Species O            -0.10189000       -1.56493000        1.88303000
  |   12: Species O            -1.10210000       -2.13717000        0.06896000
  |   13: Species H            -0.57598000       -2.14227000       -0.74844000
  |

  | The smallest distance between any two atoms is         0.97209620 AA.
  |
  | The first atom of this pair is atom number                     12 .
  | The second atom of this pair is atom number                    13 .

  Number of empty states per atom not set in control.in - providing a guess from actual geometry.
  | Total number of empty states used during s.c.f. cycle:       29
  If you use a very high smearing, use empty_states (per atom!) in control.in to increase this value.

  Structure-dependent array size parameters: 
  | Maximum number of distinct radial functions  :       21
  | Maximum number of basis functions            :      119
  | Number of Kohn-Sham states (occupied + empty):       53
------------------------------------------------------------

------------------------------------------------------------
          Preparing all fixed parts of the calculation.
------------------------------------------------------------
  Determining machine precision:
    2.225073858507201E-308
  Setting up grids for atomic and cluster calculations.

  Creating wave function, potential, and density for free atoms.

  Species: H

  List of occupied orbitals and eigenvalues:
    n    l              occ      energy [Ha]    energy [eV]
    1    0           1.0000        -0.237589        -6.4651


  Species: C

  List of occupied orbitals and eigenvalues:
    n    l              occ      energy [Ha]    energy [eV]
    1    0           2.0000       -10.038835      -273.1706
    2    0           2.0000        -0.502696       -13.6791
    2    1           2.0000        -0.191971        -5.2238


  Species: N

  List of occupied orbitals and eigenvalues:
    n    l              occ      energy [Ha]    energy [eV]
    1    0           2.0000       -14.128000      -384.4424
    2    0           2.0000        -0.681077       -18.5330
    2    1           3.0000        -0.259788        -7.0692


  Species: O

  List of occupied orbitals and eigenvalues:
    n    l              occ      energy [Ha]    energy [eV]
    1    0           2.0000       -18.898188      -514.2459
    2    0           2.0000        -0.878505       -23.9053
    2    1           4.0000        -0.331779        -9.0282

  Creating fixed part of basis set: Ionic, confined, hydrogenic.
 
  H                    hydrogenic:
 
  List of hydrogenic basis orbitals: 
    n    l      effective z      eigenvalue [eV]  inner max. [A]     outer max. [A]     outer radius [A]   
    2    0         2.100000       -14.9728           0.193243           1.317208           4.583499
    2    1         3.500000       -41.6669           0.602369           0.602369           3.723403
 
 
  C                    hydrogenic:
 
  List of hydrogenic basis orbitals: 
    n    l      effective z      eigenvalue [eV]  inner max. [A]     outer max. [A]     outer radius [A]   
    2    1         1.700000        -9.7616           1.230570           1.230570           4.607917
    3    2         6.000000       -54.4224           0.792453           0.792453           3.883070
    2    0         4.900000       -81.6679           0.082559           0.562749           3.078220
 
 
  N                    hydrogenic:
 
  List of hydrogenic basis orbitals: 
    n    l      effective z      eigenvalue [eV]  inner max. [A]     outer max. [A]     outer radius [A]   
    2    1         1.800000       -10.9749           1.177451           1.177451           4.573712
    3    2         6.800000       -69.9026           0.704619           0.704619           3.538137
    3    0         5.800000       -50.8545           0.067388           1.191934           4.250239
 
 
  O                    hydrogenic:
 
  List of hydrogenic basis orbitals: 
    n    l      effective z      eigenvalue [eV]  inner max. [A]     outer max. [A]     outer radius [A]   
    2    1         1.800000       -10.9749           1.164242           1.164242           4.578029
    3    2         7.600000       -87.3180           0.624125           0.624125           3.251020
    3    0         6.400000       -61.9207           0.061167           1.081902           4.001998
 

  Adding cutoff potential to free-atom effective potential.
  Creating atomic-like basis functions for current effective potential.

  Species H                   :

  List of atomic basis orbitals and eigenvalues:
    n    l      energy [Ha]    energy [eV]    outer radius [A]
    1    0        -0.237589        -6.4651       4.527807


  Species C                   :

  List of atomic basis orbitals and eigenvalues:
    n    l      energy [Ha]    energy [eV]    outer radius [A]
    1    0       -10.038835      -273.1706       1.934409
    2    0        -0.502696       -13.6791       4.496620
    2    1        -0.191971        -5.2238       4.551928


  Species N                   :

  List of atomic basis orbitals and eigenvalues:
    n    l      energy [Ha]    energy [eV]    outer radius [A]
    1    0       -14.128000      -384.4424       1.637919
    2    0        -0.681077       -18.5330       4.463241
    2    1        -0.259788        -7.0692       4.518138


  Species O                   :

  List of atomic basis orbitals and eigenvalues:
    n    l      energy [Ha]    energy [eV]    outer radius [A]
    1    0       -18.898188      -514.2459       1.415765
    2    0        -0.878505       -23.9053       4.413171
    2    1        -0.331779        -9.0282       4.522403

  Assembling full basis from fixed parts.
  | Species H :   atomic orbital   1 s accepted.
  | Species H :    hydro orbital   2 s accepted.
  | Species H :    hydro orbital   2 p accepted.
  | Species C :   atomic orbital   1 s accepted.
  | Species C :    hydro orbital   2 s accepted.
  | Species C :   atomic orbital   2 s accepted.
  | Species C :   atomic orbital   2 p accepted.
  | Species C :    hydro orbital   2 p accepted.
  | Species C :    hydro orbital   3 d accepted.
  | Species N :   atomic orbital   1 s accepted.
  | Species N :    hydro orbital   3 s accepted.
  | Species N :   atomic orbital   2 s accepted.
  | Species N :   atomic orbital   2 p accepted.
  | Species N :    hydro orbital   2 p accepted.
  | Species N :    hydro orbital   3 d accepted.
  | Species O :   atomic orbital   1 s accepted.
  | Species O :    hydro orbital   3 s accepted.
  | Species O :   atomic orbital   2 s accepted.
  | Species O :   atomic orbital   2 p accepted.
  | Species O :    hydro orbital   2 p accepted.
  | Species O :    hydro orbital   3 d accepted.
 
  Basis size parameters after reduction:
  | Total number of radial functions:       21
  | Total number of basis functions :      119
 
  Per-task memory consumption for arrays in subroutine allocate_ext:
  |           5.250512MB.
  Testing on-site integration grid accuracy.
  |  Species  Function  <phi|h_atom|phi> (log., in eV)  <phi|h_atom|phi> (rad., in eV)
           1        1                 -6.4663192853                 -6.4651273558
           1        2                 13.7111246313                 13.7170609718
           1        3                 25.2673269279                 25.2674696378
           2        4               -273.1705927641               -273.1705631568
           2        5                -10.7109323383                -10.7107120029
           2        6                 17.4381822266                 17.4352413244
           2        7                 -5.2255326521                 -5.2270484734
           2        8                  8.6835629259                  8.6603288385
           2        9                 27.4952418996                 27.4953360207
           3       10               -384.4424306495               -384.4423701208
           3       11                 12.5842251816                 12.5842222903
           3       12                -15.7264628251                -15.7264433455
           3       13                 -7.0696854293                 -7.0701769954
           3       14                  8.8090390882                  8.7901077751
           3       15                 35.9586762123                 35.9588528632
           4       16               -514.2458688638               -514.2457643834
           4       17                 15.1795651126                 15.1795290741
           4       18                -21.5359799773                -21.5360846186
           4       19                 -9.0283069236                 -9.0284644067
           4       20                  8.3027758564                  8.2834874195
           4       21                 45.8339351984                 45.8338762259

  Preparing densities etc. for the partition functions (integrals / Hartree potential).

  Preparations completed.
  max(cpu_time)          :      0.147 s.
  Wall clock time (cpu1) :      0.149 s.
------------------------------------------------------------

------------------------------------------------------------
          Begin self-consistency loop: Initialization.

          Date     :  20200710, Time     :  145812.977
------------------------------------------------------------

  Initializing index lists of integration centers etc. from given atomic structure:
  | Number of centers in hartree potential         :        13
  | Number of centers in hartree multipole         :        13
  | Number of centers in electron density summation:        13
  | Number of centers in basis integrals           :        13
  | Number of centers in integrals                 :        13
  | Number of centers in hamiltonian               :        13
  Partitioning the integration grid into batches with parallel hashing+maxmin method.
  | Number of batches:      955
  | Maximal batch size:     139
  | Minimal batch size:      66
  | Average batch size:      72.928
  | Standard deviation of batch sizes:      17.683

  Integration load balanced across     1 MPI tasks.
  Work distribution over tasks is as follows:
  Task     0 has      69646 integration points.
  Initializing partition tables, free-atom densities, potentials, etc. across the integration grid (initialize_grid_storage).
  | initialize_grid_storage: Actual outermost partition radius vs. multipole_radius_free
  | (-- VB: in principle, multipole_radius_free should be larger, hence this output)
  | Species        1: Confinement radius =              4.999999999999999 AA, multipole_radius_free =              5.054417573612229 AA.
  | Species        1: outer_partition_radius set to              5.054417573612229 AA .
  | Species        2: Confinement radius =              4.999999999999999 AA, multipole_radius_free =              5.019602836301480 AA.
  | Species        2: outer_partition_radius set to              5.019602836301480 AA .
  | Species        3: Confinement radius =              4.999999999999999 AA, multipole_radius_free =              5.043624274424571 AA.
  | Species        3: outer_partition_radius set to              5.043624274424571 AA .
  | Species        4: Confinement radius =              4.999999999999999 AA, multipole_radius_free =              5.048384829883283 AA.
  | Species        4: outer_partition_radius set to              5.048384829883283 AA .
  | Original list of interatomic distances with          13 x         13 entries is created.
  | Net number of integration points:    69646
  | of which are non-zero points    :    59385
  Renormalizing the initial density to the exact electron count on the 3D integration grid.
  | Initial density: Formal number of electrons (from input files) :      48.0000000000
  | Integrated number of electrons on 3D grid     :      47.9999494410
  | Charge integration error                      :      -0.0000505590
  | Normalization factor for density and gradient :       1.0000010533
  Obtaining max. number of non-zero basis functions in each batch (get_n_compute_maxes).
  | Maximal number of non-zero basis functions:      119 in task     0
  Selecting the method for density update.
  Loop over occupied states selected for charge density update.
  Allocating        0.050 MB for KS_eigenvector
  Integrating Hamiltonian matrix: batch-based integration.
  Time summed over all CPUs for integration: real work        0.496 s, elapsed        0.496 s
  Integrating overlap matrix.
  Time summed over all CPUs for integration: real work        0.213 s, elapsed        0.213 s

  Updating Kohn-Sham eigenvalues and eigenvectors using ELSI and the ELPA eigensolver.
  Overlap matrix is nonsingular
  | Lowest eigenvalue of overlap  :  0.47E-02
  | Highest eigenvalue of overlap :  0.63E+01
  Finished singularity check of overlap matrix
  | Time :     0.002 s
  Finished Cholesky decomposition
  | Time :     0.000 s
  Finished transformation to standard eigenproblem
  | Time :     0.000 s
  Starting LAPACK eigensolver
  Finished solving standard eigenproblem
  | Time :     0.002 s
  Finished back-transformation of eigenvectors
  | Time :     0.000 s

  Obtaining occupation numbers and chemical potential using ELSI.
  | Chemical potential (Fermi level):    -9.52258824eV
  Writing Kohn-Sham eigenvalues.

  State    Occupation    Eigenvalue [Ha]    Eigenvalue [eV]
      1       2.00000         -19.008278         -517.24156
      2       2.00000         -18.977151         -516.39455
      3       2.00000         -14.246364         -387.66328
      4       2.00000         -10.166588         -276.64692
      5       2.00000         -10.141636         -275.96795
      6       2.00000         -10.132132         -275.70934
      7       2.00000          -1.183101          -32.19381
      8       2.00000          -1.101018          -29.96022
      9       2.00000          -0.991710          -26.98579
     10       2.00000          -0.862076          -23.45829
     11       2.00000          -0.750583          -20.42439
     12       2.00000          -0.681653          -18.54873
     13       2.00000          -0.642086          -17.47205
     14       2.00000          -0.614869          -16.73144
     15       2.00000          -0.574906          -15.64399
     16       2.00000          -0.564749          -15.36761
     17       2.00000          -0.556249          -15.13631
     18       2.00000          -0.523411          -14.24273
     19       2.00000          -0.516625          -14.05809
     20       2.00000          -0.502874          -13.68388
     21       2.00000          -0.462488          -12.58494
     22       2.00000          -0.428783          -11.66779
     23       2.00000          -0.417785          -11.36850
     24       2.00000          -0.383359          -10.43172
     25       0.00000          -0.155996           -4.24488
     26       0.00000          -0.068667           -1.86853
     27       0.00000          -0.026414           -0.71875
     28       0.00000          -0.018393           -0.50050
     29       0.00000          -0.000998           -0.02715
     30       0.00000           0.013668            0.37192
     31       0.00000           0.024912            0.67789
     32       0.00000           0.025603            0.69669
     33       0.00000           0.048261            1.31324
     34       0.00000           0.062489            1.70041
     35       0.00000           0.083177            2.26336
     36       0.00000           0.130797            3.55916
     37       0.00000           0.163349            4.44494
     38       0.00000           0.199466            5.42775
     39       0.00000           0.216038            5.87868
     40       0.00000           0.222768            6.06184
     41       0.00000           0.261851            7.12532
     42       0.00000           0.269394            7.33057
     43       0.00000           0.282609            7.69018
     44       0.00000           0.308602            8.39749
     45       0.00000           0.325223            8.84977
     46       0.00000           0.349507            9.51058
     47       0.00000           0.362219            9.85648
     48       0.00000           0.400793           10.90613
     49       0.00000           0.441615           12.01695
     50       0.00000           0.468294           12.74292
     51       0.00000           0.519702           14.14181
     52       0.00000           0.554073           15.07710
     53       0.00000           0.567674           15.44720

  Highest occupied state (VBM) at    -10.43171744 eV
  | Occupation number:      2.00000000

  Lowest unoccupied state (CBM) at    -4.24487565 eV
  | Occupation number:      0.00000000

  Overall HOMO-LUMO gap:      6.18684179 eV.
  Calculating total energy contributions from superposition of free atom densities.

  Total energy components:
  | Sum of eigenvalues            :        -188.86094488 Ha       -5139.16778810 eV
  | XC energy correction          :         -41.80027387 Ha       -1137.44332445 eV
  | XC potential correction       :          53.73604921 Ha        1462.23229667 eV
  | Free-atom electrostatic energy:        -146.83228502 Ha       -3995.50976480 eV
  | Hartree energy correction     :           0.00000000 Ha           0.00000000 eV
  | vdW energy correction         :           0.00000000 Ha           0.00000000 eV
  | Entropy correction            :           0.00000000 Ha           0.00000000 eV
  | ---------------------------
  | Total energy                  :        -323.75745456 Ha       -8809.88858068 eV
  | Total energy, T -> 0          :        -323.75745456 Ha       -8809.88858068 eV  <-- do not rely on this value for anything but (periodic) metals
  | Electronic free energy        :        -323.75745456 Ha       -8809.88858068 eV

  Derived energy quantities:
  | Kinetic energy                :         320.52188568 Ha        8721.84427179 eV
  | Electrostatic energy          :        -602.47906636 Ha      -16394.28952802 eV
  | Energy correction for multipole
  | error in Hartree potential    :           0.00000000 Ha           0.00000000 eV
  | Sum of eigenvalues per atom                           :        -395.32059908 eV
  | Total energy (T->0) per atom                          :        -677.68373698 eV  <-- do not rely on this value for anything but (periodic) metals
  | Electronic free energy per atom                       :        -677.68373698 eV
  Initialize hartree_potential_storage
  Max. number of atoms included in rho_multipole:           13

  End scf initialization - timings             :  max(cpu_time)    wall_clock(cpu1)
  | Time for scf. initialization               :        1.154 s           1.156 s
  | Boundary condition initialization          :        0.000 s           0.000 s
  | Integration                                :        0.709 s           0.709 s
  | Solution of K.-S. eqns.                    :        0.004 s           0.005 s
  | Grid partitioning                          :        0.111 s           0.112 s
  | Preloading free-atom quantities on grid    :        0.002 s           0.002 s
  | Free-atom superposition energy             :        0.085 s           0.085 s
  | Total energy evaluation                    :        0.000 s           0.000 s

  Partial memory accounting:
  | Current value for overall tracked memory usage on task 0  :           0.165 MB
  | Peak value for overall tracked memory usage on task 0     :           0.678 MB after allocating wave
  | Largest tracked array allocation on task 0 so far         :           0.132 MB  when allocating H_times_psi
  Note:  These values currently only include a subset of arrays which are explicitly tracked.
  The "true" memory usage will be greater.
------------------------------------------------------------

------------------------------------------------------------
          Begin self-consistency iteration #    1

  Date     :  20200710, Time     :  145814.133
------------------------------------------------------------
  Evaluating new KS density.
  Integration grid: deviation in total charge (<rho> - N_e) =   2.131628E-14
  Pulay mixing of updated and previous charge densities.

  Evaluating partitioned Hartree potential by multipole expansion.
  | Analytical far-field extrapolation by fixed multipoles:
  | Hartree multipole sum: apparent total charge =  -0.154803E-03
  Summing up the Hartree potential.
  Time summed over all CPUs for potential: real work        0.282 s, elapsed        0.282 s
  | RMS charge density error from multipole expansion :   0.584979E-02

  Integrating Hamiltonian matrix: batch-based integration.
  Time summed over all CPUs for integration: real work        0.495 s, elapsed        0.495 s

  Updating Kohn-Sham eigenvalues and eigenvectors using ELSI and the ELPA eigensolver.
  Finished Cholesky decomposition
  | Time :     0.000 s
  Finished transformation to standard eigenproblem
  | Time :     0.000 s
  Starting LAPACK eigensolver
  Finished solving standard eigenproblem
  | Time :     0.001 s
  Finished back-transformation of eigenvectors
  | Time :     0.000 s

  Obtaining occupation numbers and chemical potential using ELSI.
  | Chemical potential (Fermi level):    -4.48813033eV
  Writing Kohn-Sham eigenvalues.

  State    Occupation    Eigenvalue [Ha]    Eigenvalue [eV]
      1       2.00000         -18.907750         -514.50607
      2       2.00000         -18.834693         -512.51806
      3       2.00000         -14.104896         -383.81375
      4       2.00000         -10.117431         -275.30929
      5       2.00000         -10.066318         -273.91844
      6       2.00000         -10.028457         -272.88820
      7       2.00000          -1.136756          -30.93272
      8       2.00000          -1.037914          -28.24308
      9       2.00000          -0.928186          -25.25724
     10       2.00000          -0.797075          -21.68950
     11       2.00000          -0.698773          -19.01458
     12       2.00000          -0.641094          -17.44506
     13       2.00000          -0.592417          -16.12050
     14       2.00000          -0.556749          -15.14990
     15       2.00000          -0.523725          -14.25128
     16       2.00000          -0.500606          -13.62218
     17       2.00000          -0.496170          -13.50148
     18       2.00000          -0.463672          -12.61717
     19       2.00000          -0.454075          -12.35602
     20       2.00000          -0.444720          -12.10145
     21       2.00000          -0.407473          -11.08791
     22       2.00000          -0.371599          -10.11171
     23       2.00000          -0.347794           -9.46395
     24       2.00000          -0.311465           -8.47539
     25       0.00000          -0.120052           -3.26678
     26       0.00000          -0.050334           -1.36966
     27       0.00000           0.003363            0.09151
     28       0.00000           0.015034            0.40909
     29       0.00000           0.027155            0.73892
     30       0.00000           0.052413            1.42624
     31       0.00000           0.062962            1.71327
     32       0.00000           0.067162            1.82756
     33       0.00000           0.079996            2.17681
     34       0.00000           0.100454            2.73350
     35       0.00000           0.120586            3.28132
     36       0.00000           0.160511            4.36774
     37       0.00000           0.186425            5.07288
     38       0.00000           0.226963            6.17598
     39       0.00000           0.250598            6.81912
     40       0.00000           0.253492            6.89788
     41       0.00000           0.297798            8.10350
     42       0.00000           0.305822            8.32184
     43       0.00000           0.314358            8.55412
     44       0.00000           0.344939            9.38628
     45       0.00000           0.359649            9.78654
     46       0.00000           0.383136           10.42567
     47       0.00000           0.406484           11.06100
     48       0.00000           0.437972           11.91784
     49       0.00000           0.476841           12.97550
     50       0.00000           0.501591           13.64898
     51       0.00000           0.555528           15.11668
     52       0.00000           0.584961           15.91760
     53       0.00000           0.596967           16.24431

  Highest occupied state (VBM) at     -8.47539031 eV
  | Occupation number:      2.00000000

  Lowest unoccupied state (CBM) at    -3.26678026 eV
  | Occupation number:      0.00000000

  Overall HOMO-LUMO gap:      5.20861004 eV.

  Total energy components:
  | Sum of eigenvalues            :        -185.53961763 Ha       -5048.78987526 eV
  | XC energy correction          :         -42.12586615 Ha       -1146.30314123 eV
  | XC potential correction       :          54.15944886 Ha        1473.75358736 eV
  | Free-atom electrostatic energy:        -146.83228502 Ha       -3995.50976480 eV
  | Hartree energy correction     :          -3.23701213 Ha         -88.08358175 eV
  | vdW energy correction         :           0.00000000 Ha           0.00000000 eV
  | Entropy correction            :           0.00000000 Ha           0.00000000 eV
  | ---------------------------
  | Total energy                  :        -323.57533207 Ha       -8804.93277569 eV
  | Total energy, T -> 0          :        -323.57533207 Ha       -8804.93277569 eV  <-- do not rely on this value for anything but (periodic) metals
  | Electronic free energy        :        -323.57533207 Ha       -8804.93277569 eV

  Derived energy quantities:
  | Kinetic energy                :         322.30206774 Ha        8770.28549030 eV
  | Electrostatic energy          :        -603.75153366 Ha      -16428.91512476 eV
  | Energy correction for multipole
  | error in Hartree potential    :           0.01186745 Ha           0.32292988 eV
  | Sum of eigenvalues per atom                           :        -388.36845194 eV
  | Total energy (T->0) per atom                          :        -677.30252121 eV  <-- do not rely on this value for anything but (periodic) metals
  | Electronic free energy per atom                       :        -677.30252121 eV

  Self-consistency convergence accuracy:
  | Change of charge density      :  0.5819E+00
  | Change of sum of eigenvalues  :  0.9038E+02 eV
  | Change of total energy        :  0.4956E+01 eV

  End self-consistency iteration #     1       :  max(cpu_time)    wall_clock(cpu1)
  | Time for this iteration                    :        1.190 s           1.191 s
  | Charge density update                      :        0.396 s           0.396 s
  | Density mixing                             :        0.005 s           0.005 s
  | Hartree multipole update                   :        0.009 s           0.009 s
  | Hartree multipole summation                :        0.283 s           0.283 s
  | Integration                                :        0.495 s           0.495 s
  | Solution of K.-S. eqns.                    :        0.002 s           0.002 s
  | Total energy evaluation                    :        0.000 s           0.000 s

  Partial memory accounting:
  | Current value for overall tracked memory usage on task 0  :           0.165 MB
  | Peak value for overall tracked memory usage on task 0     :           0.695 MB after allocating gradient_basis_wave
  | Largest tracked array allocation on task 0 so far         :           0.397 MB  when allocating gradient_basis_wave
  Note:  These values currently only include a subset of arrays which are explicitly tracked.
  The "true" memory usage will be greater.
------------------------------------------------------------

------------------------------------------------------------
          Begin self-consistency iteration #    2

  Date     :  20200710, Time     :  145815.325
------------------------------------------------------------
  Evaluating new KS density.
  Integration grid: deviation in total charge (<rho> - N_e) =   4.973799E-14
  Pulay mixing of updated and previous charge densities.

  Evaluating partitioned Hartree potential by multipole expansion.
  | Analytical far-field extrapolation by fixed multipoles:
  | Hartree multipole sum: apparent total charge =  -0.285981E-03
  Summing up the Hartree potential.
  Time summed over all CPUs for potential: real work        0.282 s, elapsed        0.282 s
  | RMS charge density error from multipole expansion :   0.138113E-01

  Integrating Hamiltonian matrix: batch-based integration.
  Time summed over all CPUs for integration: real work        0.493 s, elapsed        0.493 s

  Updating Kohn-Sham eigenvalues and eigenvectors using ELSI and the ELPA eigensolver.
  Finished Cholesky decomposition
  | Time :     0.000 s
  Finished transformation to standard eigenproblem
  | Time :     0.000 s
  Starting LAPACK eigensolver
  Finished solving standard eigenproblem
  | Time :     0.002 s
  Finished back-transformation of eigenvectors
  | Time :     0.000 s

  Obtaining occupation numbers and chemical potential using ELSI.
  | Chemical potential (Fermi level):    -3.42940827eV
  Highest occupied state (VBM) at     -6.59551362 eV
  | Occupation number:      2.00000000

  Lowest unoccupied state (CBM) at    -2.02051053 eV
  | Occupation number:      0.00000000

  Overall HOMO-LUMO gap:      4.57500309 eV.

  Checking to see if s.c.f. parameters should be adjusted.

  Total energy components:
  | Sum of eigenvalues            :        -182.08137063 Ha       -4954.68618648 eV
  | XC energy correction          :         -42.47789786 Ha       -1155.88241145 eV
  | XC potential correction       :          54.61564256 Ha        1486.16724947 eV
  | Free-atom electrostatic energy:        -146.83228502 Ha       -3995.50976480 eV
  | Hartree energy correction     :          -6.72197671 Ha        -182.91429276 eV
  | vdW energy correction         :           0.00000000 Ha           0.00000000 eV
  | Entropy correction            :           0.00000000 Ha           0.00000000 eV
  | ---------------------------
  | Total energy                  :        -323.49788766 Ha       -8802.82540603 eV
  | Total energy, T -> 0          :        -323.49788766 Ha       -8802.82540603 eV  <-- do not rely on this value for anything but (periodic) metals
  | Electronic free energy        :        -323.49788766 Ha       -8802.82540603 eV

  Derived energy quantities:
  | Kinetic energy                :         323.59968287 Ha        8805.59539455 eV
  | Electrostatic energy          :        -604.61967266 Ha      -16452.53838912 eV
  | Energy correction for multipole
  | error in Hartree potential    :           0.02595123 Ha           0.70616886 eV
  | Sum of eigenvalues per atom                           :        -381.12970665 eV
  | Total energy (T->0) per atom                          :        -677.14041585 eV  <-- do not rely on this value for anything but (periodic) metals
  | Electronic free energy per atom                       :        -677.14041585 eV

  Self-consistency convergence accuracy:
  | Change of charge density      :  0.3637E+00
  | Change of sum of eigenvalues  :  0.9410E+02 eV
  | Change of total energy        :  0.2107E+01 eV

  End self-consistency iteration #     2       :  max(cpu_time)    wall_clock(cpu1)
  | Time for this iteration                    :        1.182 s           1.183 s
  | Charge density update                      :        0.389 s           0.389 s
  | Density mixing                             :        0.007 s           0.007 s
  | Hartree multipole update                   :        0.009 s           0.009 s
  | Hartree multipole summation                :        0.282 s           0.282 s
  | Integration                                :        0.493 s           0.494 s
  | Solution of K.-S. eqns.                    :        0.002 s           0.002 s
  | Total energy evaluation                    :        0.000 s           0.000 s

  Partial memory accounting:
  | Current value for overall tracked memory usage on task 0  :           0.166 MB
  | Peak value for overall tracked memory usage on task 0     :           0.695 MB after allocating gradient_basis_wave
  | Largest tracked array allocation on task 0 so far         :           0.397 MB  when allocating gradient_basis_wave
  Note:  These values currently only include a subset of arrays which are explicitly tracked.
  The "true" memory usage will be greater.
------------------------------------------------------------

------------------------------------------------------------
          Begin self-consistency iteration #    3

  Date     :  20200710, Time     :  145816.509
------------------------------------------------------------
  Evaluating new KS density.
  Integration grid: deviation in total charge (<rho> - N_e) =   2.131628E-14
  Pulay mixing of updated and previous charge densities.

  Evaluating partitioned Hartree potential by multipole expansion.
  | Analytical far-field extrapolation by fixed multipoles:
  | Hartree multipole sum: apparent total charge =  -0.380192E-03
  Summing up the Hartree potential.
  Time summed over all CPUs for potential: real work        0.281 s, elapsed        0.281 s
  | RMS charge density error from multipole expansion :   0.218309E-01

  Integrating Hamiltonian matrix: batch-based integration.
  Time summed over all CPUs for integration: real work        0.493 s, elapsed        0.493 s

  Updating Kohn-Sham eigenvalues and eigenvectors using ELSI and the ELPA eigensolver.
  Finished Cholesky decomposition
  | Time :     0.000 s
  Finished transformation to standard eigenproblem
  | Time :     0.000 s
  Starting LAPACK eigensolver
  Finished solving standard eigenproblem
  | Time :     0.001 s
  Finished back-transformation of eigenvectors
  | Time :     0.000 s

  Obtaining occupation numbers and chemical potential using ELSI.
  | Chemical potential (Fermi level):    -2.86301012eV
  Highest occupied state (VBM) at     -5.95850103 eV
  | Occupation number:      2.00000000

  Lowest unoccupied state (CBM) at    -1.30262712 eV
  | Occupation number:      0.00000000

  Overall HOMO-LUMO gap:      4.65587391 eV.

  Total energy components:
  | Sum of eigenvalues            :        -180.73093451 Ha       -4917.93895004 eV
  | XC energy correction          :         -42.63525785 Ha       -1160.16439462 eV
  | XC potential correction       :          54.81638689 Ha        1491.62978060 eV
  | Free-atom electrostatic energy:        -146.83228502 Ha       -3995.50976480 eV
  | Hartree energy correction     :          -8.10279872 Ha        -220.48837143 eV
  | vdW energy correction         :           0.00000000 Ha           0.00000000 eV
  | Entropy correction            :           0.00000000 Ha           0.00000000 eV
  | ---------------------------
  | Total energy                  :        -323.48488921 Ha       -8802.47170030 eV
  | Total energy, T -> 0          :        -323.48488921 Ha       -8802.47170030 eV  <-- do not rely on this value for anything but (periodic) metals
  | Electronic free energy        :        -323.48488921 Ha       -8802.47170030 eV

  Derived energy quantities:
  | Kinetic energy                :         323.25162058 Ha        8796.12413779 eV
  | Electrostatic energy          :        -604.10125194 Ha      -16438.43144347 eV
  | Energy correction for multipole
  | error in Hartree potential    :           0.03682049 Ha           1.00193662 eV
  | Sum of eigenvalues per atom                           :        -378.30299616 eV
  | Total energy (T->0) per atom                          :        -677.11320772 eV  <-- do not rely on this value for anything but (periodic) metals
  | Electronic free energy per atom                       :        -677.11320772 eV

  Self-consistency convergence accuracy:
  | Change of charge density      :  0.2050E+00
  | Change of sum of eigenvalues  :  0.3675E+02 eV
  | Change of total energy        :  0.3537E+00 eV

  End self-consistency iteration #     3       :  max(cpu_time)    wall_clock(cpu1)
  | Time for this iteration                    :        1.182 s           1.183 s
  | Charge density update                      :        0.388 s           0.388 s
  | Density mixing                             :        0.008 s           0.008 s
  | Hartree multipole update                   :        0.009 s           0.009 s
  | Hartree multipole summation                :        0.282 s           0.282 s
  | Integration                                :        0.493 s           0.493 s
  | Solution of K.-S. eqns.                    :        0.002 s           0.002 s
  | Total energy evaluation                    :        0.000 s           0.001 s

  Partial memory accounting:
  | Current value for overall tracked memory usage on task 0  :           0.166 MB
  | Peak value for overall tracked memory usage on task 0     :           0.695 MB after allocating gradient_basis_wave
  | Largest tracked array allocation on task 0 so far         :           0.397 MB  when allocating gradient_basis_wave
  Note:  These values currently only include a subset of arrays which are explicitly tracked.
  The "true" memory usage will be greater.
------------------------------------------------------------

------------------------------------------------------------
          Begin self-consistency iteration #    4

  Date     :  20200710, Time     :  145817.694
------------------------------------------------------------
  Evaluating new KS density.
  Integration grid: deviation in total charge (<rho> - N_e) =  -5.684342E-14
  Pulay mixing of updated and previous charge densities.

  Evaluating partitioned Hartree potential by multipole expansion.
  | Analytical far-field extrapolation by fixed multipoles:
  | Hartree multipole sum: apparent total charge =  -0.411250E-03
  Summing up the Hartree potential.
  Time summed over all CPUs for potential: real work        0.282 s, elapsed        0.282 s
  | RMS charge density error from multipole expansion :   0.252971E-01

  Integrating Hamiltonian matrix: batch-based integration.
  Time summed over all CPUs for integration: real work        0.493 s, elapsed        0.493 s

  Updating Kohn-Sham eigenvalues and eigenvectors using ELSI and the ELPA eigensolver.
  Finished Cholesky decomposition
  | Time :     0.000 s
  Finished transformation to standard eigenproblem
  | Time :     0.000 s
  Starting LAPACK eigensolver
  Finished solving standard eigenproblem
  | Time :     0.002 s
  Finished back-transformation of eigenvectors
  | Time :     0.000 s

  Obtaining occupation numbers and chemical potential using ELSI.
  | Chemical potential (Fermi level):    -2.77882296eV
  Highest occupied state (VBM) at     -5.74081573 eV
  | Occupation number:      2.00000000

  Lowest unoccupied state (CBM) at    -1.21636256 eV
  | Occupation number:      0.00000000

  Overall HOMO-LUMO gap:      4.52445317 eV.

  Total energy components:
  | Sum of eigenvalues            :        -180.61374402 Ha       -4914.75003449 eV
  | XC energy correction          :         -42.67205521 Ha       -1161.16570169 eV
  | XC potential correction       :          54.86252714 Ha        1492.88532070 eV
  | Free-atom electrostatic energy:        -146.83228502 Ha       -3995.50976480 eV
  | Hartree energy correction     :          -8.22829455 Ha        -223.90328666 eV
  | vdW energy correction         :           0.00000000 Ha           0.00000000 eV
  | Entropy correction            :           0.00000000 Ha           0.00000000 eV
  | ---------------------------
  | Total energy                  :        -323.48385166 Ha       -8802.44346694 eV
  | Total energy, T -> 0          :        -323.48385166 Ha       -8802.44346694 eV  <-- do not rely on this value for anything but (periodic) metals
  | Electronic free energy        :        -323.48385166 Ha       -8802.44346694 eV

  Derived energy quantities:
  | Kinetic energy                :         322.85708012 Ha        8785.38814559 eV
  | Electrostatic energy          :        -603.66887656 Ha      -16426.66591084 eV
  | Energy correction for multipole
  | error in Hartree potential    :           0.04096317 Ha           1.11466452 eV
  | Sum of eigenvalues per atom                           :        -378.05769496 eV
  | Total energy (T->0) per atom                          :        -677.11103592 eV  <-- do not rely on this value for anything but (periodic) metals
  | Electronic free energy per atom                       :        -677.11103592 eV

  Self-consistency convergence accuracy:
  | Change of charge density      :  0.6744E-01
  | Change of sum of eigenvalues  :  0.3189E+01 eV
  | Change of total energy        :  0.2823E-01 eV

  End self-consistency iteration #     4       :  max(cpu_time)    wall_clock(cpu1)
  | Time for this iteration                    :        1.184 s           1.185 s
  | Charge density update                      :        0.388 s           0.388 s
  | Density mixing                             :        0.009 s           0.010 s
  | Hartree multipole update                   :        0.009 s           0.009 s
  | Hartree multipole summation                :        0.282 s           0.282 s
  | Integration                                :        0.494 s           0.493 s
  | Solution of K.-S. eqns.                    :        0.002 s           0.003 s
  | Total energy evaluation                    :        0.000 s           0.000 s

  Partial memory accounting:
  | Current value for overall tracked memory usage on task 0  :           0.166 MB
  | Peak value for overall tracked memory usage on task 0     :           0.696 MB after allocating gradient_basis_wave
  | Largest tracked array allocation on task 0 so far         :           0.397 MB  when allocating gradient_basis_wave
  Note:  These values currently only include a subset of arrays which are explicitly tracked.
  The "true" memory usage will be greater.
------------------------------------------------------------

------------------------------------------------------------
          Begin self-consistency iteration #    5

  Date     :  20200710, Time     :  145818.879
------------------------------------------------------------
  Evaluating new KS density.
  Integration grid: deviation in total charge (<rho> - N_e) =   5.684342E-14
  Pulay mixing of updated and previous charge densities.

  Evaluating partitioned Hartree potential by multipole expansion.
  | Analytical far-field extrapolation by fixed multipoles:
  | Hartree multipole sum: apparent total charge =  -0.405898E-03
  Summing up the Hartree potential.
  Time summed over all CPUs for potential: real work        0.282 s, elapsed        0.282 s
  | RMS charge density error from multipole expansion :   0.250736E-01

  Integrating Hamiltonian matrix: batch-based integration.
  Time summed over all CPUs for integration: real work        0.493 s, elapsed        0.493 s

  Updating Kohn-Sham eigenvalues and eigenvectors using ELSI and the ELPA eigensolver.
  Finished Cholesky decomposition
  | Time :     0.000 s
  Finished transformation to standard eigenproblem
  | Time :     0.000 s
  Starting LAPACK eigensolver
  Finished solving standard eigenproblem
  | Time :     0.002 s
  Finished back-transformation of eigenvectors
  | Time :     0.000 s

  Obtaining occupation numbers and chemical potential using ELSI.
  | Chemical potential (Fermi level):    -2.83092484eV
  Highest occupied state (VBM) at     -5.85387532 eV
  | Occupation number:      2.00000000

  Lowest unoccupied state (CBM) at    -1.29973018 eV
  | Occupation number:      0.00000000

  Overall HOMO-LUMO gap:      4.55414514 eV.

  Total energy components:
  | Sum of eigenvalues            :        -180.78970174 Ha       -4919.53808778 eV
  | XC energy correction          :         -42.64977440 Ha       -1160.55940997 eV
  | XC potential correction       :          54.83362178 Ha        1492.09876589 eV
  | Free-atom electrostatic energy:        -146.83228502 Ha       -3995.50976480 eV
  | Hartree energy correction     :          -8.04541720 Ha        -218.92694076 eV
  | vdW energy correction         :           0.00000000 Ha           0.00000000 eV
  | Entropy correction            :           0.00000000 Ha           0.00000000 eV
  | ---------------------------
  | Total energy                  :        -323.48355658 Ha       -8802.43543742 eV
  | Total energy, T -> 0          :        -323.48355658 Ha       -8802.43543742 eV  <-- do not rely on this value for anything but (periodic) metals
  | Electronic free energy        :        -323.48355658 Ha       -8802.43543742 eV

  Derived energy quantities:
  | Kinetic energy                :         322.75219588 Ha        8782.53410043 eV
  | Electrostatic energy          :        -603.58597806 Ha      -16424.41012788 eV
  | Energy correction for multipole
  | error in Hartree potential    :           0.04035380 Ha           1.09808289 eV
  | Sum of eigenvalues per atom                           :        -378.42600675 eV
  | Total energy (T->0) per atom                          :        -677.11041826 eV  <-- do not rely on this value for anything but (periodic) metals
  | Electronic free energy per atom                       :        -677.11041826 eV

  Self-consistency convergence accuracy:
  | Change of charge density      :  0.2162E-01
  | Change of sum of eigenvalues  : -0.4788E+01 eV
  | Change of total energy        :  0.8030E-02 eV

  End self-consistency iteration #     5       :  max(cpu_time)    wall_clock(cpu1)
  | Time for this iteration                    :        1.185 s           1.186 s
  | Charge density update                      :        0.388 s           0.388 s
  | Density mixing                             :        0.011 s           0.011 s
  | Hartree multipole update                   :        0.009 s           0.009 s
  | Hartree multipole summation                :        0.282 s           0.282 s
  | Integration                                :        0.493 s           0.493 s
  | Solution of K.-S. eqns.                    :        0.002 s           0.002 s
  | Total energy evaluation                    :        0.000 s           0.000 s

  Partial memory accounting:
  | Current value for overall tracked memory usage on task 0  :           0.166 MB
  | Peak value for overall tracked memory usage on task 0     :           0.696 MB after allocating gradient_basis_wave
  | Largest tracked array allocation on task 0 so far         :           0.397 MB  when allocating gradient_basis_wave
  Note:  These values currently only include a subset of arrays which are explicitly tracked.
  The "true" memory usage will be greater.
------------------------------------------------------------

------------------------------------------------------------
          Begin self-consistency iteration #    6

  Date     :  20200710, Time     :  145820.070
------------------------------------------------------------
  Evaluating new KS density.
  Integration grid: deviation in total charge (<rho> - N_e) =   2.842171E-14
  Pulay mixing of updated and previous charge densities.

  Evaluating partitioned Hartree potential by multipole expansion.
  | Analytical far-field extrapolation by fixed multipoles:
  | Hartree multipole sum: apparent total charge =  -0.408797E-03
  Summing up the Hartree potential.
  Time summed over all CPUs for potential: real work        0.282 s, elapsed        0.282 s
  | RMS charge density error from multipole expansion :   0.254799E-01

  Integrating Hamiltonian matrix: batch-based integration.
  Time summed over all CPUs for integration: real work        0.501 s, elapsed        0.501 s

  Updating Kohn-Sham eigenvalues and eigenvectors using ELSI and the ELPA eigensolver.
  Finished Cholesky decomposition
  | Time :     0.000 s
  Finished transformation to standard eigenproblem
  | Time :     0.000 s
  Starting LAPACK eigensolver
  Finished solving standard eigenproblem
  | Time :     0.002 s
  Finished back-transformation of eigenvectors
  | Time :     0.000 s

  Obtaining occupation numbers and chemical potential using ELSI.
  | Chemical potential (Fermi level):    -2.83375671eV
  Highest occupied state (VBM) at     -5.84192352 eV
  | Occupation number:      2.00000000

  Lowest unoccupied state (CBM) at    -1.32459069 eV
  | Occupation number:      0.00000000

  Overall HOMO-LUMO gap:      4.51733283 eV.

  Total energy components:
  | Sum of eigenvalues            :        -180.81172495 Ha       -4920.13736972 eV
  | XC energy correction          :         -42.64681805 Ha       -1160.47896377 eV
  | XC potential correction       :          54.82974539 Ha        1491.99328386 eV
  | Free-atom electrostatic energy:        -146.83228502 Ha       -3995.50976480 eV
  | Hartree energy correction     :          -8.02241290 Ha        -218.30096191 eV
  | vdW energy correction         :           0.00000000 Ha           0.00000000 eV
  | Entropy correction            :           0.00000000 Ha           0.00000000 eV
  | ---------------------------
  | Total energy                  :        -323.48349553 Ha       -8802.43377634 eV
  | Total energy, T -> 0          :        -323.48349553 Ha       -8802.43377634 eV  <-- do not rely on this value for anything but (periodic) metals
  | Electronic free energy        :        -323.48349553 Ha       -8802.43377634 eV

  Derived energy quantities:
  | Kinetic energy                :         322.66417351 Ha        8780.13888980 eV
  | Electrostatic energy          :        -603.50085099 Ha      -16422.09370237 eV
  | Energy correction for multipole
  | error in Hartree potential    :           0.04063749 Ha           1.10580239 eV
  | Sum of eigenvalues per atom                           :        -378.47210536 eV
  | Total energy (T->0) per atom                          :        -677.11029049 eV  <-- do not rely on this value for anything but (periodic) metals
  | Electronic free energy per atom                       :        -677.11029049 eV

  Self-consistency convergence accuracy:
  | Change of charge density      :  0.1091E-01
  | Change of sum of eigenvalues  : -0.5993E+00 eV
  | Change of total energy        :  0.1661E-02 eV

  End self-consistency iteration #     6       :  max(cpu_time)    wall_clock(cpu1)
  | Time for this iteration                    :        1.188 s           1.196 s
  | Charge density update                      :        0.388 s           0.389 s
  | Density mixing                             :        0.012 s           0.012 s
  | Hartree multipole update                   :        0.009 s           0.009 s
  | Hartree multipole summation                :        0.282 s           0.282 s
  | Integration                                :        0.494 s           0.501 s
  | Solution of K.-S. eqns.                    :        0.002 s           0.003 s
  | Total energy evaluation                    :        0.000 s           0.000 s

  Partial memory accounting:
  | Current value for overall tracked memory usage on task 0  :           0.166 MB
  | Peak value for overall tracked memory usage on task 0     :           0.696 MB after allocating gradient_basis_wave
  | Largest tracked array allocation on task 0 so far         :           0.397 MB  when allocating gradient_basis_wave
  Note:  These values currently only include a subset of arrays which are explicitly tracked.
  The "true" memory usage will be greater.
------------------------------------------------------------

------------------------------------------------------------
          Begin self-consistency iteration #    7

  Date     :  20200710, Time     :  145821.266
------------------------------------------------------------
  Evaluating new KS density.
  Integration grid: deviation in total charge (<rho> - N_e) =  -1.421085E-14
  Pulay mixing of updated and previous charge densities.

  Evaluating partitioned Hartree potential by multipole expansion.
  | Analytical far-field extrapolation by fixed multipoles:
  | Hartree multipole sum: apparent total charge =  -0.409833E-03
  Summing up the Hartree potential.
  Time summed over all CPUs for potential: real work        0.282 s, elapsed        0.282 s
  | RMS charge density error from multipole expansion :   0.256071E-01

  Integrating Hamiltonian matrix: batch-based integration.
  Time summed over all CPUs for integration: real work        0.494 s, elapsed        0.494 s

  Updating Kohn-Sham eigenvalues and eigenvectors using ELSI and the ELPA eigensolver.
  Finished Cholesky decomposition
  | Time :     0.000 s
  Finished transformation to standard eigenproblem
  | Time :     0.000 s
  Starting LAPACK eigensolver
  Finished solving standard eigenproblem
  | Time :     0.001 s
  Finished back-transformation of eigenvectors
  | Time :     0.000 s

[...]
  |   Hirshfeld dipole moment :      0.05820796
  |   Hirshfeld second moments:      0.01386337      -0.02817478      -0.01467919
  |                                 -0.02817478      -0.02592801       0.00544637
  |                                 -0.01467919       0.00544637      -0.01951619
  ----------------------------------------------------------------------
  | Atom    12: O
  |   Hirshfeld charge        :     -0.14775470
  |   Free atom volume        :     23.61338643
  |   Hirshfeld volume        :     20.94739938
  |   Hirshfeld dipole vector :      0.02370228       0.03595937      -0.00939406
  |   Hirshfeld dipole moment :      0.04408086
  |   Hirshfeld second moments:      0.05480123      -0.01799997      -0.01135874
  |                                 -0.01799997       0.03987623       0.02953183
  |                                 -0.01135874       0.02953183       0.07804044
  ----------------------------------------------------------------------
  | Atom    13: H
  |   Hirshfeld charge        :      0.15946649
  |   Free atom volume        :      9.95071624
  |   Hirshfeld volume        :      6.43539579
  |   Hirshfeld dipole vector :      0.05476489      -0.03140811      -0.08683105
  |   Hirshfeld dipole moment :      0.10735592
  |   Hirshfeld second moments:      0.11779366      -0.00938963       0.00858073
  |                                 -0.00938963       0.09378105       0.01971893
  |                                  0.00858073       0.01971893       0.10253397
  ----------------------------------------------------------------------


  Total energy components:
  | Sum of eigenvalues            :        -180.80502256 Ha       -4919.95498829 eV
  | XC energy correction          :         -42.64437686 Ha       -1160.41253553 eV
  | XC potential correction       :          54.82666367 Ha        1491.90942610 eV
  | Free-atom electrostatic energy:        -146.83228502 Ha       -3995.50976480 eV
  | Hartree energy correction     :          -8.02845341 Ha        -218.46533281 eV
  | vdW energy correction         :          -0.00322852 Ha          -0.08785246 eV
  | Entropy correction            :           0.00000000 Ha           0.00000000 eV
  | ---------------------------
  | Total energy                  :        -323.48670270 Ha       -8802.52104779 eV
  | Total energy, T -> 0          :        -323.48670270 Ha       -8802.52104779 eV  <-- do not rely on this value for anything but (periodic) metals
  | Electronic free energy        :        -323.48670270 Ha       -8802.52104779 eV

  Derived energy quantities:
  | Kinetic energy                :         322.62811872 Ha        8779.15778894 eV
  | Electrostatic energy          :        -603.46721604 Ha      -16421.17844874 eV
  | Energy correction for multipole
  | error in Hartree potential    :           0.04069488 Ha           1.10736392 eV
  | Sum of eigenvalues per atom                           :        -378.45807602 eV
  | Total energy (T->0) per atom                          :        -677.11700368 eV  <-- do not rely on this value for anything but (periodic) metals
  | Electronic free energy per atom                       :        -677.11700368 eV

  atomic forces [eV/Ang]:
  -----------------------
  atom #    1
   Hellmann-Feynman              :  0.547818E+00 -0.455356E-01  0.120821E+01
   Ionic forces                  :  0.000000E+00  0.000000E+00  0.000000E+00
   Multipole                     :  0.147185E+00  0.373356E-01 -0.230182E+00
   Pulay + GGA                   : -0.104135E+01  0.228200E+00 -0.135605E+01
   Van der Waals                 :  0.206607E-02  0.221628E-02 -0.877807E-03
   ----------------------------------------------------------------
   Total forces(   1)            : -0.344280E+00  0.222216E+00 -0.378902E+00
  atom #    2
   Hellmann-Feynman              :  0.250111E+00  0.100358E+00 -0.777252E-01
   Ionic forces                  :  0.000000E+00  0.000000E+00  0.000000E+00
   Multipole                     :  0.178363E+00  0.307666E-02  0.139923E-01
   Pulay + GGA                   : -0.132799E+00  0.233341E-01  0.550207E-01
   Van der Waals                 :  0.435316E-02 -0.456247E-02 -0.664763E-02
   ----------------------------------------------------------------
   Total forces(   2)            :  0.300029E+00  0.122206E+00 -0.153598E-01
  atom #    3
   Hellmann-Feynman              : -0.304983E+01  0.100767E+02 -0.165128E+01
   Ionic forces                  :  0.000000E+00  0.000000E+00  0.000000E+00
   Multipole                     : -0.193551E+00  0.220919E+00 -0.944658E+00
   Pulay + GGA                   :  0.390270E+01 -0.101658E+02  0.302379E+01
   Van der Waals                 :  0.354290E-02 -0.413593E-02 -0.877703E-02
   ----------------------------------------------------------------
   Total forces(   3)            :  0.662868E+00  0.127671E+00  0.419075E+00
  atom #    4
   Hellmann-Feynman              : -0.892871E-01 -0.202925E+00 -0.217909E+00
   Ionic forces                  :  0.000000E+00  0.000000E+00  0.000000E+00
   Multipole                     :  0.319386E-01 -0.378660E-01 -0.975393E-01
   Pulay + GGA                   : -0.145243E+00  0.174370E+00  0.832871E-01
   Van der Waals                 : -0.124844E-02  0.607132E-02  0.202938E-03
   ----------------------------------------------------------------
   Total forces(   4)            : -0.203839E+00 -0.603495E-01 -0.231959E+00
  atom #    5
   Hellmann-Feynman              : -0.221166E+00 -0.119759E-01 -0.313578E+00
   Ionic forces                  :  0.000000E+00  0.000000E+00  0.000000E+00
   Multipole                     : -0.591060E-01 -0.742760E-01 -0.592894E-01
   Pulay + GGA                   :  0.709399E-01  0.278852E+00  0.191013E-01
   Van der Waals                 : -0.150448E-03  0.214890E-02  0.337735E-03
   ----------------------------------------------------------------
   Total forces(   5)            : -0.209483E+00  0.194749E+00 -0.353428E+00
  atom #    6
   Hellmann-Feynman              :  0.426739E-01 -0.271947E+00  0.502298E+00
   Ionic forces                  :  0.000000E+00  0.000000E+00  0.000000E+00
   Multipole                     : -0.116644E+00  0.635170E+00  0.254935E+00
   Pulay + GGA                   :  0.208793E+00 -0.708768E+00 -0.576067E+00
   Van der Waals                 : -0.115646E-02  0.535185E-02 -0.445510E-02
   ----------------------------------------------------------------
   Total forces(   6)            :  0.133666E+00 -0.340194E+00  0.176712E+00
  atom #    7
   Hellmann-Feynman              : -0.212757E+00 -0.526964E-01 -0.449097E-01
   Ionic forces                  :  0.000000E+00  0.000000E+00  0.000000E+00
   Multipole                     : -0.118925E+00  0.490031E-01  0.235861E-01
   Pulay + GGA                   :  0.121374E+00  0.151516E-01 -0.277156E-02
   Van der Waals                 : -0.151813E-02  0.618571E-03  0.244821E-02
   ----------------------------------------------------------------
   Total forces(   7)            : -0.211826E+00  0.120768E-01 -0.216469E-01
  atom #    8
   Hellmann-Feynman              :  0.550388E-01 -0.599689E-01  0.158658E+00
   Ionic forces                  :  0.000000E+00  0.000000E+00  0.000000E+00
   Multipole                     :  0.173656E-01  0.644092E-01  0.124465E+00
   Pulay + GGA                   : -0.439214E-01 -0.389549E-01 -0.861615E-01
   Van der Waals                 : -0.266139E-02  0.114134E-01  0.159128E-02
   ----------------------------------------------------------------
   Total forces(   8)            :  0.258217E-01 -0.231013E-01  0.198553E+00
  atom #    9
   Hellmann-Feynman              :  0.942847E-01 -0.194205E-02 -0.195674E+00
   Ionic forces                  :  0.000000E+00  0.000000E+00  0.000000E+00
   Multipole                     :  0.156182E-01  0.129531E+00 -0.103444E-01
   Pulay + GGA                   : -0.566335E-01 -0.951892E-01  0.274106E-01
   Van der Waals                 : -0.218939E-02  0.233125E-02  0.338732E-02
   ----------------------------------------------------------------
   Total forces(   9)            :  0.510800E-01  0.347312E-01 -0.175221E+00
  atom #   10
   Hellmann-Feynman              :  0.349917E+01  0.452710E+01  0.224427E+01
   Ionic forces                  :  0.000000E+00  0.000000E+00  0.000000E+00
   Multipole                     :  0.336151E-01  0.664456E-02  0.217417E+00
   Pulay + GGA                   : -0.214480E+01 -0.272926E+01  0.176666E-01
   Van der Waals                 :  0.252883E-02 -0.143073E-01  0.486605E-02
   ----------------------------------------------------------------
   Total forces(  10)            :  0.139052E+01  0.179018E+01  0.248422E+01
  atom #   11
   Hellmann-Feynman              :  0.418237E+01 -0.253989E+01  0.140441E+02
   Ionic forces                  :  0.000000E+00  0.000000E+00  0.000000E+00
   Multipole                     :  0.210616E+00 -0.574322E+00  0.701630E+00
   Pulay + GGA                   : -0.401352E+01  0.387919E+01 -0.136616E+02
   Van der Waals                 : -0.281084E-02 -0.107936E-01  0.661119E-02
   ----------------------------------------------------------------
   Total forces(  11)            :  0.376657E+00  0.754182E+00  0.109070E+01
  atom #   12
   Hellmann-Feynman              : -0.118351E+02 -0.936425E+01  0.158460E+01
   Ionic forces                  :  0.000000E+00  0.000000E+00  0.000000E+00
   Multipole                     : -0.850968E+00 -0.154662E+01  0.788611E-02
   Pulay + GGA                   :  0.113434E+02  0.851340E+01 -0.360729E+01
   Van der Waals                 :  0.191695E-02  0.680343E-02  0.297977E-02
   ----------------------------------------------------------------
   Total forces(  12)            : -0.134073E+01 -0.239067E+01 -0.201183E+01
  atom #   13
   Hellmann-Feynman              : -0.496047E+00 -0.369857E+00 -0.146999E+01
   Ionic forces                  :  0.000000E+00  0.000000E+00  0.000000E+00
   Multipole                     :  0.663228E-01 -0.209826E-01 -0.838787E-01
   Pulay + GGA                   : -0.197988E+00 -0.515390E-01  0.366703E+00
   Van der Waals                 : -0.267282E-02 -0.315565E-02 -0.166692E-02
   ----------------------------------------------------------------
   Total forces(  13)            : -0.630385E+00 -0.445534E+00 -0.118883E+01

  Timings for VdW correction (Tkatchenko-Scheffler 2009 or later):
  | CPU time:        0.090 s, Wall clock time:        0.090 s.
  Removing unitary transformations (pure translations, rotations) from forces on atoms.
  Atomic forces before filtering:
  | Net force on center of mass :   0.967733E-04 -0.183754E-02 -0.790952E-02 eV/A
  | Net torque on center of mass:   0.568119E-02  0.151320E-02 -0.775092E-03 eV
  Atomic forces after filtering:
  | Net force on center of mass :   0.356812E-15  0.535218E-15  0.000000E+00 eV/A
  | Net torque on center of mass:   0.849676E-15  0.424838E-15 -0.944085E-15 eV

  Energy and forces in a compact form:
  | Total energy uncorrected      :         -0.880252104778757E+04 eV
  | Total energy corrected        :         -0.880252104778757E+04 eV  <-- do not rely on this value for anything but (periodic) metals
  | Electronic free energy        :         -0.880252104778757E+04 eV
  Total atomic forces (unitary forces cleaned) [eV/Ang]:
  |   1         -0.344287290152965E+00          0.222358270703203E+00         -0.378290203122549E+00
  |   2          0.300020939005188E+00          0.122366756987692E+00         -0.146716437484280E-01
  |   3          0.662959355726144E+00          0.127603389592269E+00          0.419653103931077E+00
  |   4         -0.203701134537740E+00         -0.604913907390386E-01         -0.231287102302228E+00
  |   5         -0.209374300395677E+00          0.194656151961917E+00         -0.352808829056896E+00
  |   6          0.133586573487770E+00         -0.339955172576750E+00          0.177107932966085E+00
  |   7         -0.211907547064498E+00          0.122991125634715E-01         -0.213309555332883E-01
  |   8          0.256695807356416E-01         -0.227092132666636E-01          0.198973309338307E+00
  |   9          0.510204945573474E-01          0.349034095061328E-01         -0.174927860108384E+00
  |  10          0.139047702744457E+01          0.179042524520794E+01          0.248499122565228E+01
  |  11          0.376544208183649E+00          0.754592521903996E+00          0.109153184667071E+01
  |  12         -0.134070318358204E+01         -0.239054071882994E+01         -0.201098526680741E+01
  |  13         -0.630304723407388E+00         -0.445508363014231E+00         -0.118795555787928E+01

  ------------------------------------ 
  Start decomposition of the XC Energy 
  ------------------------------------ 
  X and C from original XC functional choice 
  Hartree-Fock Energy :          0.000000000 Ha              0.000000000 eV
  X Energy            :        -41.042044485 Ha          -1116.810853143 eV
  C Energy            :         -1.602332376 Ha            -43.601682388 eV
  Total XC Energy     :        -42.644376861 Ha          -1160.412535531 eV
  ------------------------------------ 
  LDA X and C from self-consistent density 
  X Energy LDA        :        -37.262985040 Ha          -1013.977413547 eV
  C Energy LDA        :         -3.139126347 Ha            -85.419974018 eV
  ------------------------------------ 
  End decomposition of the XC Energy 
  ------------------------------------ 

------------------------------------------------------------

------------------------------------------------------------------------------
  Final output of selected total energy values:

  The following output summarizes some interesting total energy values
  at the end of a run (AFTER all relaxation, molecular dynamics, etc.).

  | Total energy of the DFT / Hartree-Fock s.c.f. calculation      :          -8802.521047788 eV
  | Final zero-broadening corrected energy (caution - metals only) :          -8802.521047788 eV
  | For reference only, the value of 1 Hartree used in FHI-aims is :             27.211384500 eV

  Before relying on these values, please be sure to understand exactly which
  total energy value is referred to by a given number. Different objects may
  all carry the same name 'total energy'. Definitions:

  Total energy of the DFT / Hartree-Fock s.c.f. calculation:
  | Note that this energy does not include ANY quantities calculated after the
  | s.c.f. cycle, in particular not ANY RPA, MP2, etc. many-body perturbation terms.

  Final zero-broadening corrected energy:
  | For metallic systems only, a broadening of the occupation numbers at the Fermi
  | level can be extrapolated back to zero broadening by an electron-gas inspired
  | formula. For all systems that are not real metals, this value can be
  | meaningless and should be avoided.

------------------------------------------------------------------------------
  Methods described in the following list of references were used in this FHI-aims run.
  If you publish the results, please make sure to cite these reference if they apply.
  FHI-aims is an academic code, and for our developers (often, Ph.D. students
  and postdocs), scientific credit in the community is essential.
  Thank you for helping us!

  For any use of FHI-aims, please cite:

    Volker Blum, Ralf Gehrke, Felix Hanke, Paula Havu, Ville Havu,
    Xinguo Ren, Karsten Reuter, and Matthias Scheffler
    'Ab initio molecular simulations with numeric atom-centered orbitals'
    Computer Physics Communications 180, 2175-2196 (2009)
    http://dx.doi.org/10.1016/j.cpc.2009.06.022


  The scalable eigensolver library ELPA was used in your run.
  ELPA is essential especially for large systems on hundreds or thousands of CPUs.
  For ELPA, please cite:

    Andreas Marek, Volker Blum, Rainer Johanni, Ville Havu, Bruno Lang,
    Thomas Auckenthaler, Alexander Heinecke, Hans-Joachim Bungartz, and Hermann Lederer,
    'The ELPA Library - Scalable Parallel Eigenvalue Solutions
    for Electronic Structure Theory and Computational Science'
    The Journal of Physics: Condensed Matter 26, 213201 (2014).
    http://dx.doi.org/10.1088/0953-8984/26/21/213201


  The ELSI infrastructure was used in your run to solve the Kohn-Sham electronic structure.
  Please check out http://elsi-interchange.org to learn more.
  If scalability is important for your project, please acknowledge ELSI by citing:

    V. W-z. Yu, F. Corsetti, A. Garcia, W. P. Huhn, M. Jacquelin, W. Jia,
    B. Lange, L. Lin, J. Lu, W. Mi, A. Seifitokaldani, A. Vazquez-Mayagoitia,
    C. Yang, H. Yang, and V. Blum
    'ELSI: A unified software interface for Kohn-Sham electronic structure solvers'
    Computer Physics Communications 222, 267-285 (2018).
    http://dx.doi.org/10.1016/j.cpc.2017.09.007


  For the real-space grid partitioning and parallelization used in this calculation, please cite:

    Ville Havu, Volker Blum, Paula Havu, and Matthias Scheffler,
    'Efficient O(N) integration for all-electron electronic structure calculation'
    'using numerically tabulated basis functions'
    Journal of Computational Physics 228, 8367-8379 (2009).
    http://dx.doi.org/10.1016/j.jcp.2009.08.008

  Of course, there are many other important community references, e.g., those cited in the
  above references. Our list is limited to references that describe implementations in the
  FHI-aims code. The reason is purely practical (length of this list) - please credit others as well.

------------------------------------------------------------
          Leaving FHI-aims.
          Date     :  20200710, Time     :  145835.560

          Computational steps:
          | Number of self-consistency cycles          :           16
          | Number of SCF (re)initializations          :            1

          Detailed time accounting                     :  max(cpu_time)    wall_clock(cpu1)
          | Total time                                 :       22.683 s          22.745 s
          | Preparation time                           :        0.147 s           0.149 s
          | Boundary condition initalization           :        0.000 s           0.000 s
          | Grid partitioning                          :        0.111 s           0.112 s
          | Preloading free-atom quantities on grid    :        0.002 s           0.002 s
          | Free-atom superposition energy             :        0.085 s           0.085 s
          | Total time for integrations                :        8.608 s           8.616 s
          | Total time for solution of K.-S. equations :        0.036 s           0.040 s
          | Total time for density & force components  :        7.188 s           7.207 s
          | Total time for mixing                      :        0.216 s           0.218 s
          | Total time for Hartree multipole update    :        0.141 s           0.144 s
          | Total time for Hartree multipole sum       :        5.747 s           5.750 s
          | Total time for total energy evaluation     :        0.003 s           0.003 s
          | Total time for vdW correction              :        0.090 s           0.090 s

          Partial memory accounting:
          | Residual value for overall tracked memory usage across tasks :           0.000 MB (should be 0.000 MB)
          | Peak values for overall tracked memory usage (after allocating hessian_basis_wave):
          |   Minimum:        1.622 MB (on task 1)
          |   Maximum:        1.622 MB (on task 1)
          |   Average:        1.622 MB
          | Largest tracked array allocation (hessian_basis_wave):
          |   Minimum:        0.794 MB (on task 1)
          |   Maximum:        0.794 MB (on task 1)
          |   Average:        0.794 MB
          Note:  These values currently only include a subset of arrays which are explicitly tracked.
          The "true" memory usage will be greater.

          Have a nice day.
------------------------------------------------------------
