  MPI-parallelism will be employed.
------------------------------------------------------------
          Invoking FHI-aims ...
          Version 171221_1
          Compiled on 2019/09/09 at 14:39:39 on host puhti-login2.bullx.

          When using FHI-aims, please cite the following reference:

          Volker Blum, Ralf Gehrke, Felix Hanke, Paula Havu,
          Ville Havu, Xinguo Ren, Karsten Reuter, and Matthias Scheffler,
          'Ab Initio Molecular Simulations with Numeric Atom-Centered Orbitals',
          Computer Physics Communications 180, 2175-2196 (2009)

          For any questions about FHI-aims, please visit the aimsclub website
          with its forums and wiki. Contributions to both the forums and the
          wiki are warmly encouraged - they are for you, and everyone is welcome there.

------------------------------------------------------------



  Date     :  20200815, Time     :  003504.306
  Time zero on CPU 1             :   0.116410000000000E-01  s.
  Internal wall clock time zero  :           366683704.306  s.

  FHI-aims created a unique identifier for this run for later identification
  aims_uuid : 6BFF6C47-B778-4E66-A39B-72F5868C452B

  Using        1 parallel tasks.
  Task        0 on host r16c11.bullx reporting.

  Performing system and environment tests:
  | Environment variable OMP_NUM_THREADS correctly set to 1.
  | Stacksize not measured: no C compiler
  | Checking for scalapack...
  | Testing pdtran()...
  | All pdtran() tests passed.

  Obtaining array dimensions for all initial allocations:
  
  -----------------------------------------------------------------------
  Parsing control.in (first pass over file, find array dimensions only).
  The contents of control.in will be repeated verbatim below
  unless switched off by setting 'verbatim_writeout .false.' .
  in the first line of control.in .
  -----------------------------------------------------------------------
  
  #########################################################################################
  #
  #  Volker Blum, FHI 2009 : Test run input file control.in for simple H2O
  #
  #########################################################################################
  #
  #  Physical model
  #
    xc                 pbe
    vdw_correction_hirshfeld
    spin               none
    relativistic       none
    charge             0.
  #
  #  SCF convergence
  #
    occupation_type    gaussian 0.01
    mixer              pulay
      n_max_pulay        10
      charge_mix_param   0.2
    sc_accuracy_rho    1E-5
    sc_accuracy_eev    1E-3
    sc_accuracy_etot   1E-6
    sc_accuracy_forces 1E-4
    sc_iter_limit      100
  #
  #  Relaxation
  #
  #  relax_geometry   bfgs 1.e-3
  #
  ################################################################################
  #
  #  FHI-aims code project
  #  VB, Fritz-Haber Institut, 2009
  #
  #  Suggested "light" defaults for H atom (to be pasted into control.in file)
  #  Be sure to double-check any results obtained with these settings for post-processing,
  #  e.g., with the "tight" defaults and larger basis sets.
  #
  ################################################################################
    species        H
  #     global species definitions
      nucleus             1
      mass                1.00794
  #
      l_hartree           4
  #
      cut_pot             3.5  1.5  1.0
      basis_dep_cutoff    1e-4
  #
      radial_base         24 5.0
      radial_multiplier   1
      angular_grids       specified
        division   0.2421   50
        division   0.3822  110
        division   0.4799  194
        division   0.5341  302
  #      division   0.5626  434
  #      division   0.5922  590
  #      division   0.6542  770
  #      division   0.6868 1202
  #      outer_grid  770
        outer_grid  302
  ################################################################################
  #
  #  Definition of "minimal" basis
  #
  ################################################################################
  #     valence basis states
      valence      1  s   1.
  #     ion occupancy
      ion_occ      1  s   0.5
  ################################################################################
  #
  #  Suggested additional basis functions. For production calculations,
  #  uncomment them one after another (the most important basis functions are
  #  listed first).
  #
  #  Basis constructed for dimers: 0.5 A, 0.7 A, 1.0 A, 1.5 A, 2.5 A
  #
  ################################################################################
  #  "First tier" - improvements: -1014.90 meV to -62.69 meV
       hydro 2 s 2.1
       hydro 2 p 3.5
  #  "Second tier" - improvements: -12.89 meV to -1.83 meV
  #     hydro 1 s 0.85
  #     hydro 2 p 3.7
  #     hydro 2 s 1.2
  #     hydro 3 d 7
  #  "Third tier" - improvements: -0.25 meV to -0.12 meV
  #     hydro 4 f 11.2
  #     hydro 3 p 4.8
  #     hydro 4 d 9
  #     hydro 3 s 3.2
  ################################################################################
  #
  #  FHI-aims code project
  #  VB, Fritz-Haber Institut, 2009
  #
  #  Suggested "light" defaults for C atom (to be pasted into control.in file)
  #  Be sure to double-check any results obtained with these settings for post-processing,
  #  e.g., with the "tight" defaults and larger basis sets.
  #
  ################################################################################
    species        C
  #     global species definitions
      nucleus             6
      mass                12.0107
  #
      l_hartree           4
  #
      cut_pot             3.5  1.5  1.0
      basis_dep_cutoff    1e-4
  #
      radial_base         34 5.0
      radial_multiplier   1
      angular_grids specified
        division   0.3326   50
        division   0.5710  110
        division   0.7727  194
        division   0.8772  302
  #      division   0.9334  434
  #      division   0.9625  590
  #      division   0.9924  770
  #      division   1.0230  974
  #      division   1.4589 1202
  #     outer_grid  974
       outer_grid 302
  ################################################################################
  #
  #  Definition of "minimal" basis
  #
  ################################################################################
  #     valence basis states
      valence      2  s   2.
      valence      2  p   2.
  #     ion occupancy
      ion_occ      2  s   1.
      ion_occ      2  p   1.
  ################################################################################
  #
  #  Suggested additional basis functions. For production calculations,
  #  uncomment them one after another (the most important basis functions are
  #  listed first).
  #
  #  Constructed for dimers: 1.0 A, 1.25 A, 1.5 A, 2.0 A, 3.0 A
  #
  ################################################################################
  #  "First tier" - improvements: -1214.57 meV to -155.61 meV
       hydro 2 p 1.7
       hydro 3 d 6
       hydro 2 s 4.9
  #  "Second tier" - improvements: -67.75 meV to -5.23 meV
  #     hydro 4 f 9.8
  #     hydro 3 p 5.2
  #     hydro 3 s 4.3
  #     hydro 5 g 14.4
  #     hydro 3 d 6.2
  #  "Third tier" - improvements: -2.43 meV to -0.60 meV
  #     hydro 2 p 5.6
  #     hydro 2 s 1.4
  #     hydro 3 d 4.9
  #     hydro 4 f 11.2
  #  "Fourth tier" - improvements: -0.39 meV to -0.18 meV
  #     hydro 2 p 2.1
  #     hydro 5 g 16.4
  #     hydro 4 d 13.2
  #     hydro 3 s 13.6
  #     hydro 4 f 17.6
  #  Further basis functions - improvements: -0.08 meV and below
  #     hydro 3 s 2
  #     hydro 3 p 6
  #     hydro 4 d 20
  ################################################################################
  #
  #  FHI-aims code project
  #  VB, Fritz-Haber Institut, 2009
  #
  #  Suggested "light" defaults for N atom (to be pasted into control.in file)
  #  Be sure to double-check any results obtained with these settings for post-processing,
  #  e.g., with the "tight" defaults and larger basis sets.
  #
  ################################################################################
    species        N
  #     global species definitions
      nucleus             7
      mass                14.0067
  #
      l_hartree           4
  #
      cut_pot             3.5  1.5  1.0
      basis_dep_cutoff    1e-4
  #
      radial_base         35 5.0
      radial_multiplier   1
      angular_grids       specified
        division   0.2599   50
        division   0.4601  110
        division   0.5885  194
        division   0.6503  302
  #      division   0.6939  434
  #      division   0.7396  590
  #      division   0.7632  770
  #      division   0.8122  974
  #      division   1.1604 1202
  #      outer_grid  974
        outer_grid  302
  ################################################################################
  #
  #  Definition of "minimal" basis
  #
  ################################################################################
  #     valence basis states
      valence      2  s   2.
      valence      2  p   3.
  #     ion occupancy
      ion_occ      2  s   1.
      ion_occ      2  p   2.
  ################################################################################
  #
  #  Suggested additional basis functions. For production calculations,
  #  uncomment them one after another (the most important basis functions are
  #  listed first).
  #
  #  Constructed for dimers: 1.0 A, 1.1 A, 1.5 A, 2.0 A, 3.0 A
  #
  ################################################################################
  #  "First tier" - improvements: -1193.42 meV to -220.60 meV
       hydro 2 p 1.8
       hydro 3 d 6.8
       hydro 3 s 5.8
  #  "Second tier" - improvements: -80.21 meV to -6.86 meV
  #     hydro 4 f 10.8
  #     hydro 3 p 5.8
  #     hydro 1 s 0.8
  #     hydro 5 g 16
  #     hydro 3 d 4.9
  #  "Third tier" - improvements: -4.29 meV to -0.53 meV
  #     hydro 3 s 16
  #     ionic 2 p auto
  #     hydro 3 d 6.6
  #     hydro 4 f 11.6
  #  "Fourth tier" - improvements: -0.75 meV to -0.25 meV
  #     hydro 2 p 4.5
  #     hydro 2 s 2.4
  #     hydro 5 g 14.4
  #     hydro 4 d 14.4
  #     hydro 4 f 16.8
  # Further basis functions - -0.21 meV and below
  #     hydro 3 p 14.8
  #     hydro 3 s 4.4
  #     hydro 3 d 19.6
  #     hydro 5 g 12.8
  ################################################################################
  #
  #  FHI-aims code project
  #  VB, Fritz-Haber Institut, 2009
  #
  #  Suggested "light" defaults for O atom (to be pasted into control.in file)
  #  Be sure to double-check any results obtained with these settings for post-processing,
  #  e.g., with the "tight" defaults and larger basis sets.
  #
  ################################################################################
    species        O
  #     global species definitions
      nucleus             8
      mass                15.9994
  #
      l_hartree           4
  #
      cut_pot             3.5  1.5  1.0
      basis_dep_cutoff    1e-4
  #
      radial_base         36 5.0
      radial_multiplier   1
       angular_grids specified
        division   0.2659   50
        division   0.4451  110
        division   0.6052  194
        division   0.7543  302
  #      division   0.8014  434
  #      division   0.8507  590
  #      division   0.8762  770
  #      division   0.9023  974
  #      division   1.2339 1202
  #      outer_grid 974
        outer_grid 302
  ################################################################################
  #
  #  Definition of "minimal" basis
  #
  ################################################################################
  #     valence basis states
      valence      2  s   2.
      valence      2  p   4.
  #     ion occupancy
      ion_occ      2  s   1.
      ion_occ      2  p   3.
  ################################################################################
  #
  #  Suggested additional basis functions. For production calculations,
  #  uncomment them one after another (the most important basis functions are
  #  listed first).
  #
  #  Constructed for dimers: 1.0 A, 1.208 A, 1.5 A, 2.0 A, 3.0 A
  #
  ################################################################################
  #  "First tier" - improvements: -699.05 meV to -159.38 meV
       hydro 2 p 1.8
       hydro 3 d 7.6
       hydro 3 s 6.4
  #  "Second tier" - improvements: -49.91 meV to -5.39 meV
  #     hydro 4 f 11.6
  #     hydro 3 p 6.2
  #     hydro 3 d 5.6
  #     hydro 5 g 17.6
  #     hydro 1 s 0.75
  #  "Third tier" - improvements: -2.83 meV to -0.50 meV
  #     ionic 2 p auto
  #     hydro 4 f 10.8
  #     hydro 4 d 4.7
  #     hydro 2 s 6.8
  #  "Fourth tier" - improvements: -0.40 meV to -0.12 meV
  #     hydro 3 p 5
  #     hydro 3 s 3.3
  #     hydro 5 g 15.6
  #     hydro 4 f 17.6
  #     hydro 4 d 14
  # Further basis functions - -0.08 meV and below
  #     hydro 3 s 2.1
  #     hydro 4 d 11.6
  #     hydro 3 p 16
  #     hydro 2 s 17.2
  
  -----------------------------------------------------------------------
  Completed first pass over input file control.in .
  -----------------------------------------------------------------------
  
  
  -----------------------------------------------------------------------
  Parsing geometry.in (first pass over file, find array dimensions only).
  The contents of geometry.in will be repeated verbatim below
  unless switched off by setting 'verbatim_writeout .false.' .
  in the first line of geometry.in .
  -----------------------------------------------------------------------
  
  atom  0.00000 0.00000 0.00000 C
  atom  1.09300 0.00000 0.00000 H
  atom  -0.47961 0.00000 -1.41207 N
  atom  -0.19778 -0.87623 -1.85323 H
  atom  -1.49405 0.08389 -1.41272 H
  atom  -0.49584 1.26211 0.72868 C
  atom  -1.58789 1.28919 0.74431 H
  atom  -0.13407 1.27425 1.75947 H
  atom  -0.13407 2.16087 0.22380 H
  atom  -0.39425 -1.28861 0.74398 C
  atom  -0.10189 -1.56493 1.88303 O
  atom  -1.10210 -2.13717 0.06896 O
  atom  -1.46820 -1.52376 -0.59034 H
  
  -----------------------------------------------------------------------
  Completed first pass over input file geometry.in .
  -----------------------------------------------------------------------
  

  Basic array size parameters:
  | Number of species                 :        4
  | Number of atoms                   :       13
  | Max. basis fn. angular momentum   :        2
  | Max. atomic/ionic basis occupied n:        2
  | Max. number of basis fn. types    :        2
  | Max. radial fns per species/type  :        3
  | Max. logarithmic grid size        :     1301
  | Max. radial integration grid size :       36
  | Max. angular integration grid size:      302
  | Max. angular grid division number :        8
  | Radial grid for Hartree potential :     1301
  | Number of spin channels           :        1

------------------------------------------------------------
          Reading file control.in.
------------------------------------------------------------
  XC: Using PBE gradient-corrected functionals.
  Spin treatment: No spin polarisation.
  Non-relativistic treatment of kinetic energy.
  Charge =   0.000000E+00: Neutral system requested explicitly.
  Occupation type: Gaussian broadening, width =   0.100000E-01 eV.
  Using pulay charge density mixing.
  Pulay mixing - number of memorized iterations:   10
  Charge density mixing - mixing parameter:     0.2000
  Convergence accuracy of self-consistent charge density:  0.1000E-04
  Convergence accuracy of sum of eigenvalues:  0.1000E-02
  Convergence accuracy of total energy:  0.1000E-05
  Convergence accuracy of forces:  0.1000E-03
  Maximum number of s.-c. iterations  :   100
 
  Reading configuration options for species H                   .
  | Found nuclear charge :   1.0000
  | Found atomic mass :    1.00794000000000      amu
  | Found l_max for Hartree potential  :   4
  | Found cutoff potl. onset [A], width [A], scale factor :    3.50000    1.50000    1.00000
  | Threshold for basis-dependent cutoff potential is   0.100000E-03
  | Found data for basic radial integration grid :    24 points, outermost radius =    5.000 A
  | Found multiplier for basic radial grid :   1
  | Found angular grid specification: user-specified.
  | Specified grid contains     5 separate shells.
  | Check grid settings after all constraints further below.
  | Found free-atom valence shell :  1 s   1.000
  | No ionic wave fns used. Skipping ion_occ.
  | Found hydrogenic basis function :  2 s   2.100
  | Found hydrogenic basis function :  2 p   3.500
  Species H                   : Missing cutoff potential type.
  Defaulting to exp(1/x)/(1-x)^2 type cutoff potential.
  Species H : No 'logarithmic' tag. Using default grid for free atom:
  | Default logarithmic grid data [bohr] : 0.1000E-03 0.1000E+03 0.1012E+01
  Species H : On-site basis accuracy parameter (for Gram-Schmidt orthonormalisation) not specified.
  Using default value basis_acc =  0.1000000E-03.
  Species H                   : Using default innermost maximum threshold i_radial=  2 for radial functions.
  Species H                   : Default cutoff onset for free atom density etc. : 0.35000000E+01 AA.
  Species H                   : Basic radial grid will be enhanced according to radial_multiplier =   1, to contain    24 grid points.
 
  Reading configuration options for species C                   .
  | Found nuclear charge :   6.0000
  | Found atomic mass :    12.0107000000000      amu
  | Found l_max for Hartree potential  :   4
  | Found cutoff potl. onset [A], width [A], scale factor :    3.50000    1.50000    1.00000
  | Threshold for basis-dependent cutoff potential is   0.100000E-03
  | Found data for basic radial integration grid :    34 points, outermost radius =    5.000 A
  | Found multiplier for basic radial grid :   1
  | Found angular grid specification: user-specified.
  | Specified grid contains     5 separate shells.
  | Check grid settings after all constraints further below.
  | Found free-atom valence shell :  2 s   2.000
  | Found free-atom valence shell :  2 p   2.000
  | No ionic wave fns used. Skipping ion_occ.
  | No ionic wave fns used. Skipping ion_occ.
  | Found hydrogenic basis function :  2 p   1.700
  | Found hydrogenic basis function :  3 d   6.000
  | Found hydrogenic basis function :  2 s   4.900
  Species C                   : Missing cutoff potential type.
  Defaulting to exp(1/x)/(1-x)^2 type cutoff potential.
  Species C : No 'logarithmic' tag. Using default grid for free atom:
  | Default logarithmic grid data [bohr] : 0.1000E-03 0.1000E+03 0.1012E+01
  Species C : On-site basis accuracy parameter (for Gram-Schmidt orthonormalisation) not specified.
  Using default value basis_acc =  0.1000000E-03.
  Species C                   : Using default innermost maximum threshold i_radial=  2 for radial functions.
  Species C                   : Default cutoff onset for free atom density etc. : 0.35000000E+01 AA.
  Species C                   : Basic radial grid will be enhanced according to radial_multiplier =   1, to contain    34 grid points.
 
  Reading configuration options for species N                   .
  | Found nuclear charge :   7.0000
  | Found atomic mass :    14.0067000000000      amu
  | Found l_max for Hartree potential  :   4
  | Found cutoff potl. onset [A], width [A], scale factor :    3.50000    1.50000    1.00000
  | Threshold for basis-dependent cutoff potential is   0.100000E-03
  | Found data for basic radial integration grid :    35 points, outermost radius =    5.000 A
  | Found multiplier for basic radial grid :   1
  | Found angular grid specification: user-specified.
  | Specified grid contains     5 separate shells.
  | Check grid settings after all constraints further below.
  | Found free-atom valence shell :  2 s   2.000
  | Found free-atom valence shell :  2 p   3.000
  | No ionic wave fns used. Skipping ion_occ.
  | No ionic wave fns used. Skipping ion_occ.
  | Found hydrogenic basis function :  2 p   1.800
  | Found hydrogenic basis function :  3 d   6.800
  | Found hydrogenic basis function :  3 s   5.800
  Species N                   : Missing cutoff potential type.
  Defaulting to exp(1/x)/(1-x)^2 type cutoff potential.
  Species N : No 'logarithmic' tag. Using default grid for free atom:
  | Default logarithmic grid data [bohr] : 0.1000E-03 0.1000E+03 0.1012E+01
  Species N : On-site basis accuracy parameter (for Gram-Schmidt orthonormalisation) not specified.
  Using default value basis_acc =  0.1000000E-03.
  Species N                   : Using default innermost maximum threshold i_radial=  2 for radial functions.
  Species N                   : Default cutoff onset for free atom density etc. : 0.35000000E+01 AA.
  Species N                   : Basic radial grid will be enhanced according to radial_multiplier =   1, to contain    35 grid points.
 
  Reading configuration options for species O                   .
  | Found nuclear charge :   8.0000
  | Found atomic mass :    15.9994000000000      amu
  | Found l_max for Hartree potential  :   4
  | Found cutoff potl. onset [A], width [A], scale factor :    3.50000    1.50000    1.00000
  | Threshold for basis-dependent cutoff potential is   0.100000E-03
  | Found data for basic radial integration grid :    36 points, outermost radius =    5.000 A
  | Found multiplier for basic radial grid :   1
  | Found angular grid specification: user-specified.
  | Specified grid contains     5 separate shells.
  | Check grid settings after all constraints further below.
  | Found free-atom valence shell :  2 s   2.000
  | Found free-atom valence shell :  2 p   4.000
  | No ionic wave fns used. Skipping ion_occ.
  | No ionic wave fns used. Skipping ion_occ.
  | Found hydrogenic basis function :  2 p   1.800
  | Found hydrogenic basis function :  3 d   7.600
  | Found hydrogenic basis function :  3 s   6.400
  Species O                   : Missing cutoff potential type.
  Defaulting to exp(1/x)/(1-x)^2 type cutoff potential.
  Species O : No 'logarithmic' tag. Using default grid for free atom:
  | Default logarithmic grid data [bohr] : 0.1000E-03 0.1000E+03 0.1012E+01
  Species O : On-site basis accuracy parameter (for Gram-Schmidt orthonormalisation) not specified.
  Using default value basis_acc =  0.1000000E-03.
  Species O                   : Using default innermost maximum threshold i_radial=  2 for radial functions.
  Species O                   : Default cutoff onset for free atom density etc. : 0.35000000E+01 AA.
  Species O                   : Basic radial grid will be enhanced according to radial_multiplier =   1, to contain    36 grid points.
 
  Finished reading input file 'control.in'. Consistency checks are next.
 
  MPI_IN_PLACE appears to work with this MPI implementation.
  | Keeping use_mpi_in_place .true. (see manual).
  Target number of points in a grid batch is not set. Defaulting to  100
  Method for grid partitioning is not set. Defaulting to parallel hash+maxmin partitioning.
  Batch size limit is not set. Defaulting to    200
  By default, will store active basis functions for each batch.
  If in need of memory, prune_basis_once .false. can be used to disable this option.
  communication_type for Hartree potential was not specified.
  Defaulting to calc_hartree .
  Pulay mixer: Number of initial linear mixing iterations not set.
  Defaulting to    0 iterations.
  Work space size for distributed Hartree potential not set.
  Defaulting to   0.200000E+03 MB.
  Algorithm-dependent basis array size parameters:
  | n_max_pulay                         :       10
  Presetting      1001 iterations before the initial mixing cycle
  is restarted anyway using the sc_init_iter criterion / keyword.
  Presetting a factor      1.000 between actual scf density residual
  and density convergence criterion sc_accuracy_rho below which sc_init_iter
  takes no effect.
  Geometry relaxation not requested: no relaxation will be performed.
  Handling of forces: Unphysical translation and rotation will be removed from forces.
  No accuracy limit for integral partition fn. given. Defaulting to  0.1000E-14.
  No threshold value for u(r) in integrations given. Defaulting to  0.1000E-05.
  No accuracy for occupation numbers given. Defaulting to  0.1000E-12.
  No threshold value for occupation numbers given. Defaulting to  0.0000E+00.
  No accuracy for fermi level given. Defaulting to  0.1000E-19.
  Maximum # of iterations to find E_F not set. Defaulting to  200.
  Preferred method for the eigenvalue solver ('KS_method') not specified in 'control.in'.
  Defaulting to serial version, 'lapack_fast'.
  Will not use alltoall communication since running on < 1024 CPUs.
  Threshold for basis singularities not set.
  Default threshold for basis singularities:  0.1000E-04
  partition_type (choice of integration weights) for integrals was not specified.
  | Using a version of the partition function of Stratmann and coworkers ('stratmann_smoother').
  | At each grid point, the set of atoms used to build the partition table is smoothly restricted to
  | only those atoms whose free-atom density would be non-zero at that grid point.
  Partitioning for Hartree potential was not defined. Using partition_type for integrals.
  | Adjusted default value of keyword multip_moments_threshold to:       0.10000000E-11
  | This value may affect high angular momentum components of the Hartree potential in periodic systems.
  No q(lm)/r^(l+1) cutoff set for long-range Hartree potential.
  | Using default value of  0.100000E-09 .
  | Verify using the multipole_threshold keyword.
  Defaulting to new monopole extrapolation.
  Density update method: automatic selection selected.
------------------------------------------------------------


------------------------------------------------------------
          Reading geometry description geometry.in.
------------------------------------------------------------
  Input structure read successfully.
  The structure contains       13 atoms,  and a total of         48.000 electrons.

  Input geometry:
  | No unit cell requested.
  | Atomic structure:
  |       Atom                x [A]            y [A]            z [A]
  |    1: Species C             0.00000000        0.00000000        0.00000000
  |    2: Species H             1.09300000        0.00000000        0.00000000
  |    3: Species N            -0.47961000        0.00000000       -1.41207000
  |    4: Species H            -0.19778000       -0.87623000       -1.85323000
  |    5: Species H            -1.49405000        0.08389000       -1.41272000
  |    6: Species C            -0.49584000        1.26211000        0.72868000
  |    7: Species H            -1.58789000        1.28919000        0.74431000
  |    8: Species H            -0.13407000        1.27425000        1.75947000
  |    9: Species H            -0.13407000        2.16087000        0.22380000
  |   10: Species C            -0.39425000       -1.28861000        0.74398000
  |   11: Species O            -0.10189000       -1.56493000        1.88303000
  |   12: Species O            -1.10210000       -2.13717000        0.06896000
  |   13: Species H            -1.46820000       -1.52376000       -0.59034000
  |

  | The smallest distance between any two atoms is         0.97209955 AA.
  |
  | The first atom of this pair is atom number                     12 .
  | The second atom of this pair is atom number                    13 .

  Number of empty states per atom not set in control.in - providing a guess from actual geometry.
  | Total number of empty states used during s.c.f. cycle:       29
  If you use a very high smearing, use empty_states (per atom!) in control.in to increase this value.

  Structure-dependent array size parameters: 
  | Maximum number of distinct radial functions  :       21
  | Maximum number of basis functions            :      119
  | Number of Kohn-Sham states (occupied + empty):       53
------------------------------------------------------------

------------------------------------------------------------
          Preparing all fixed parts of the calculation.
------------------------------------------------------------
  Determining machine precision:
    2.225073858507201E-308
  Setting up grids for atomic and cluster calculations.

  Creating wave function, potential, and density for free atoms.

  Species: H

  List of occupied orbitals and eigenvalues:
    n    l              occ      energy [Ha]    energy [eV]
    1    0           1.0000        -0.237589        -6.4651


  Species: C

  List of occupied orbitals and eigenvalues:
    n    l              occ      energy [Ha]    energy [eV]
    1    0           2.0000       -10.038835      -273.1706
    2    0           2.0000        -0.502696       -13.6791
    2    1           2.0000        -0.191971        -5.2238


  Species: N

  List of occupied orbitals and eigenvalues:
    n    l              occ      energy [Ha]    energy [eV]
    1    0           2.0000       -14.128000      -384.4424
    2    0           2.0000        -0.681077       -18.5330
    2    1           3.0000        -0.259788        -7.0692


  Species: O

  List of occupied orbitals and eigenvalues:
    n    l              occ      energy [Ha]    energy [eV]
    1    0           2.0000       -18.898188      -514.2459
    2    0           2.0000        -0.878505       -23.9053
    2    1           4.0000        -0.331779        -9.0282

  Creating fixed part of basis set: Ionic, confined, hydrogenic.
 
  H                    hydrogenic:
 
  List of hydrogenic basis orbitals: 
    n    l      effective z      eigenvalue [eV]  inner max. [A]     outer max. [A]     outer radius [A]   
    2    0         2.100000       -14.9728           0.193243           1.317208           4.583499
    2    1         3.500000       -41.6669           0.602369           0.602369           3.723403
 
 
  C                    hydrogenic:
 
  List of hydrogenic basis orbitals: 
    n    l      effective z      eigenvalue [eV]  inner max. [A]     outer max. [A]     outer radius [A]   
    2    1         1.700000        -9.7616           1.230570           1.230570           4.607917
    3    2         6.000000       -54.4224           0.792453           0.792453           3.883070
    2    0         4.900000       -81.6679           0.082559           0.562749           3.078220
 
 
  N                    hydrogenic:
 
  List of hydrogenic basis orbitals: 
    n    l      effective z      eigenvalue [eV]  inner max. [A]     outer max. [A]     outer radius [A]   
    2    1         1.800000       -10.9749           1.177451           1.177451           4.573712
    3    2         6.800000       -69.9026           0.704619           0.704619           3.538137
    3    0         5.800000       -50.8545           0.067388           1.191934           4.250239
 
 
  O                    hydrogenic:
 
  List of hydrogenic basis orbitals: 
    n    l      effective z      eigenvalue [eV]  inner max. [A]     outer max. [A]     outer radius [A]   
    2    1         1.800000       -10.9749           1.164242           1.164242           4.578029
    3    2         7.600000       -87.3180           0.624125           0.624125           3.251020
    3    0         6.400000       -61.9207           0.061167           1.081902           4.001998
 

  Adding cutoff potential to free-atom effective potential.
  Creating atomic-like basis functions for current effective potential.

  Species H                   :

  List of atomic basis orbitals and eigenvalues:
    n    l      energy [Ha]    energy [eV]    outer radius [A]
    1    0        -0.237589        -6.4651       4.527807


  Species C                   :

  List of atomic basis orbitals and eigenvalues:
    n    l      energy [Ha]    energy [eV]    outer radius [A]
    1    0       -10.038835      -273.1706       1.934409
    2    0        -0.502696       -13.6791       4.496620
    2    1        -0.191971        -5.2238       4.551928


  Species N                   :

  List of atomic basis orbitals and eigenvalues:
    n    l      energy [Ha]    energy [eV]    outer radius [A]
    1    0       -14.128000      -384.4424       1.637919
    2    0        -0.681077       -18.5330       4.463241
    2    1        -0.259788        -7.0692       4.518138


  Species O                   :

  List of atomic basis orbitals and eigenvalues:
    n    l      energy [Ha]    energy [eV]    outer radius [A]
    1    0       -18.898188      -514.2459       1.415765
    2    0        -0.878505       -23.9053       4.413171
    2    1        -0.331779        -9.0282       4.522403

  Assembling full basis from fixed parts.
  | Species H :   atomic orbital   1 s accepted.
  | Species H :    hydro orbital   2 s accepted.
  | Species H :    hydro orbital   2 p accepted.
  | Species C :   atomic orbital   1 s accepted.
  | Species C :    hydro orbital   2 s accepted.
  | Species C :   atomic orbital   2 s accepted.
  | Species C :   atomic orbital   2 p accepted.
  | Species C :    hydro orbital   2 p accepted.
  | Species C :    hydro orbital   3 d accepted.
  | Species N :   atomic orbital   1 s accepted.
  | Species N :    hydro orbital   3 s accepted.
  | Species N :   atomic orbital   2 s accepted.
  | Species N :   atomic orbital   2 p accepted.
  | Species N :    hydro orbital   2 p accepted.
  | Species N :    hydro orbital   3 d accepted.
  | Species O :   atomic orbital   1 s accepted.
  | Species O :    hydro orbital   3 s accepted.
  | Species O :   atomic orbital   2 s accepted.
  | Species O :   atomic orbital   2 p accepted.
  | Species O :    hydro orbital   2 p accepted.
  | Species O :    hydro orbital   3 d accepted.
 
  Basis size parameters after reduction:
  | Total number of radial functions:       21
  | Total number of basis functions :      119
 
  Per-task memory consumption for arrays in subroutine allocate_ext:
  |           5.250512MB.
  Testing on-site integration grid accuracy.
  |  Species  Function  <phi|h_atom|phi> (log., in eV)  <phi|h_atom|phi> (rad., in eV)
           1        1                 -6.4663192853                 -6.4651273558
           1        2                 13.7111246313                 13.7170609718
           1        3                 25.2673269279                 25.2674696378
           2        4               -273.1705927641               -273.1705631568
           2        5                -10.7109323383                -10.7107120029
           2        6                 17.4381822266                 17.4352413244
           2        7                 -5.2255326521                 -5.2270484734
           2        8                  8.6835629259                  8.6603288385
           2        9                 27.4952418996                 27.4953360207
           3       10               -384.4424306495               -384.4423701208
           3       11                 12.5842251816                 12.5842222903
           3       12                -15.7264628251                -15.7264433455
           3       13                 -7.0696854293                 -7.0701769954
           3       14                  8.8090390882                  8.7901077751
           3       15                 35.9586762123                 35.9588528632
           4       16               -514.2458688638               -514.2457643834
           4       17                 15.1795651126                 15.1795290741
           4       18                -21.5359799773                -21.5360846186
           4       19                 -9.0283069236                 -9.0284644067
           4       20                  8.3027758564                  8.2834874195
           4       21                 45.8339351984                 45.8338762259

  Preparing densities etc. for the partition functions (integrals / Hartree potential).

  Preparations completed.
  max(cpu_time)          :      0.146 s.
  Wall clock time (cpu1) :      0.147 s.
------------------------------------------------------------

------------------------------------------------------------
          Begin self-consistency loop: Initialization.

          Date     :  20200815, Time     :  003504.467
------------------------------------------------------------

  Initializing index lists of integration centers etc. from given atomic structure:
  | Number of centers in hartree potential         :        13
  | Number of centers in hartree multipole         :        13
  | Number of centers in electron density summation:        13
  | Number of centers in basis integrals           :        13
  | Number of centers in integrals                 :        13
  | Number of centers in hamiltonian               :        13
  Partitioning the integration grid into batches with parallel hashing+maxmin method.
  | Number of batches:      957
  | Maximal batch size:     139
  | Minimal batch size:      66
  | Average batch size:      72.775
  | Standard deviation of batch sizes:      17.365

  Integration load balanced across     1 MPI tasks.
  Work distribution over tasks is as follows:
  Task     0 has      69646 integration points.
  Initializing partition tables, free-atom densities, potentials, etc. across the integration grid (initialize_grid_storage).
  | initialize_grid_storage: Actual outermost partition radius vs. multipole_radius_free
  | (-- VB: in principle, multipole_radius_free should be larger, hence this output)
  | Species        1: Confinement radius =              4.999999999999999 AA, multipole_radius_free =              5.054417573612229 AA.
  | Species        1: outer_partition_radius set to              5.054417573612229 AA .
  | Species        2: Confinement radius =              4.999999999999999 AA, multipole_radius_free =              5.019602836301480 AA.
  | Species        2: outer_partition_radius set to              5.019602836301480 AA .
  | Species        3: Confinement radius =              4.999999999999999 AA, multipole_radius_free =              5.043624274424571 AA.
  | Species        3: outer_partition_radius set to              5.043624274424571 AA .
  | Species        4: Confinement radius =              4.999999999999999 AA, multipole_radius_free =              5.048384829883283 AA.
  | Species        4: outer_partition_radius set to              5.048384829883283 AA .
  | Original list of interatomic distances with          13 x         13 entries is created.
  | Net number of integration points:    69646
  | of which are non-zero points    :    59275
  Renormalizing the initial density to the exact electron count on the 3D integration grid.
  | Initial density: Formal number of electrons (from input files) :      48.0000000000
  | Integrated number of electrons on 3D grid     :      47.9998715779
  | Charge integration error                      :      -0.0001284221
  | Normalization factor for density and gradient :       1.0000026755
  Obtaining max. number of non-zero basis functions in each batch (get_n_compute_maxes).
  | Maximal number of non-zero basis functions:      119 in task     0
  Selecting the method for density update.
  Loop over occupied states selected for charge density update.
  Allocating        0.050 MB for KS_eigenvector
  Integrating Hamiltonian matrix: batch-based integration.
  Time summed over all CPUs for integration: real work        0.496 s, elapsed        0.496 s
  Integrating overlap matrix.
  Time summed over all CPUs for integration: real work        0.212 s, elapsed        0.212 s

  Updating Kohn-Sham eigenvalues and eigenvectors using ELSI and the ELPA eigensolver.
  Overlap matrix is nonsingular
  | Lowest eigenvalue of overlap  :  0.48E-02
  | Highest eigenvalue of overlap :  0.65E+01
  Finished singularity check of overlap matrix
  | Time :     0.002 s
  Finished Cholesky decomposition
  | Time :     0.000 s
  Finished transformation to standard eigenproblem
  | Time :     0.000 s
  Starting LAPACK eigensolver
  Finished solving standard eigenproblem
  | Time :     0.002 s
  Finished back-transformation of eigenvectors
  | Time :     0.000 s

  Obtaining occupation numbers and chemical potential using ELSI.
  | Chemical potential (Fermi level):    -8.77258001eV
  Writing Kohn-Sham eigenvalues.

  State    Occupation    Eigenvalue [Ha]    Eigenvalue [eV]
      1       2.00000         -19.007826         -517.22927
      2       2.00000         -18.977125         -516.39384
      3       2.00000         -14.247200         -387.68604
      4       2.00000         -10.166702         -276.65004
      5       2.00000         -10.141922         -275.97573
      6       2.00000         -10.132067         -275.70758
      7       2.00000          -1.182415          -32.17514
      8       2.00000          -1.101870          -29.98342
      9       2.00000          -0.994162          -27.05252
     10       2.00000          -0.861751          -23.44945
     11       2.00000          -0.752836          -20.48572
     12       2.00000          -0.679603          -18.49295
     13       2.00000          -0.637453          -17.34598
     14       2.00000          -0.622380          -16.93581
     15       2.00000          -0.581961          -15.83596
     16       2.00000          -0.558247          -15.19069
     17       2.00000          -0.543596          -14.79199
     18       2.00000          -0.537783          -14.63382
     19       2.00000          -0.513634          -13.97671
     20       2.00000          -0.487352          -13.26153
     21       2.00000          -0.476408          -12.96373
     22       2.00000          -0.432066          -11.75711
     23       2.00000          -0.426609          -11.60861
     24       2.00000          -0.379346          -10.32252
     25       0.00000          -0.149917           -4.07945
     26       0.00000          -0.069971           -1.90400
     27       0.00000          -0.029577           -0.80484
     28       0.00000          -0.012669           -0.34475
     29       0.00000           0.006481            0.17635
     30       0.00000           0.010317            0.28074
     31       0.00000           0.026070            0.70940
     32       0.00000           0.033826            0.92046
     33       0.00000           0.043049            1.17142
     34       0.00000           0.057908            1.57575
     35       0.00000           0.086881            2.36416
     36       0.00000           0.132635            3.60919
     37       0.00000           0.172422            4.69185
     38       0.00000           0.197386            5.37116
     39       0.00000           0.218107            5.93498
     40       0.00000           0.227950            6.20283
     41       0.00000           0.236289            6.42975
     42       0.00000           0.264690            7.20258
     43       0.00000           0.277641            7.55501
     44       0.00000           0.297703            8.10092
     45       0.00000           0.312355            8.49960
     46       0.00000           0.352700            9.59745
     47       0.00000           0.367517           10.00064
     48       0.00000           0.381500           10.38114
     49       0.00000           0.443238           12.06112
     50       0.00000           0.469337           12.77132
     51       0.00000           0.497659           13.54200
     52       0.00000           0.558727           15.20374
     53       0.00000           0.596570           16.23349

  Highest occupied state (VBM) at    -10.32251881 eV
  | Occupation number:      2.00000000

  Lowest unoccupied state (CBM) at    -4.07944916 eV
  | Occupation number:      0.00000000

  Overall HOMO-LUMO gap:      6.24306965 eV.
  Calculating total energy contributions from superposition of free atom densities.

  Total energy components:
  | Sum of eigenvalues            :        -188.88462997 Ha       -5139.81229237 eV
  | XC energy correction          :         -41.80884276 Ha       -1137.67649574 eV
  | XC potential correction       :          53.74784898 Ha        1462.55338469 eV
  | Free-atom electrostatic energy:        -146.81509530 Ha       -3995.04200852 eV
  | Hartree energy correction     :           0.00000000 Ha           0.00000000 eV
  | vdW energy correction         :           0.00000000 Ha           0.00000000 eV
  | Entropy correction            :           0.00000000 Ha           0.00000000 eV
  | ---------------------------
  | Total energy                  :        -323.76071905 Ha       -8809.97741194 eV
  | Total energy, T -> 0          :        -323.76071905 Ha       -8809.97741194 eV  <-- do not rely on this value for anything but (periodic) metals
  | Electronic free energy        :        -323.76071905 Ha       -8809.97741194 eV

  Derived energy quantities:
  | Kinetic energy                :         320.53630264 Ha        8722.23657723 eV
  | Electrostatic energy          :        -602.48817892 Ha      -16394.53749343 eV
  | Energy correction for multipole
  | error in Hartree potential    :           0.00000000 Ha           0.00000000 eV
  | Sum of eigenvalues per atom                           :        -395.37017634 eV
  | Total energy (T->0) per atom                          :        -677.69057015 eV  <-- do not rely on this value for anything but (periodic) metals
  | Electronic free energy per atom                       :        -677.69057015 eV
  Initialize hartree_potential_storage
  Max. number of atoms included in rho_multipole:           13

  End scf initialization - timings             :  max(cpu_time)    wall_clock(cpu1)
  | Time for scf. initialization               :        1.150 s           1.153 s
  | Boundary condition initialization          :        0.000 s           0.000 s
  | Integration                                :        0.707 s           0.708 s
  | Solution of K.-S. eqns.                    :        0.004 s           0.004 s
  | Grid partitioning                          :        0.111 s           0.112 s
  | Preloading free-atom quantities on grid    :        0.002 s           0.003 s
  | Free-atom superposition energy             :        0.085 s           0.085 s
  | Total energy evaluation                    :        0.000 s           0.000 s

  Partial memory accounting:
  | Current value for overall tracked memory usage on task 0  :           0.165 MB
  | Peak value for overall tracked memory usage on task 0     :           0.678 MB after allocating wave
  | Largest tracked array allocation on task 0 so far         :           0.132 MB  when allocating H_times_psi
  Note:  These values currently only include a subset of arrays which are explicitly tracked.
  The "true" memory usage will be greater.
------------------------------------------------------------

------------------------------------------------------------
          Begin self-consistency iteration #    1

  Date     :  20200815, Time     :  003505.620
------------------------------------------------------------
  Evaluating new KS density.
  Integration grid: deviation in total charge (<rho> - N_e) =  -7.105427E-14
  Pulay mixing of updated and previous charge densities.

  Evaluating partitioned Hartree potential by multipole expansion.
  | Analytical far-field extrapolation by fixed multipoles:
  | Hartree multipole sum: apparent total charge =  -0.232161E-03
  Summing up the Hartree potential.
  Time summed over all CPUs for potential: real work        0.281 s, elapsed        0.281 s
  | RMS charge density error from multipole expansion :   0.594495E-02

  Integrating Hamiltonian matrix: batch-based integration.
  Time summed over all CPUs for integration: real work        0.494 s, elapsed        0.494 s

  Updating Kohn-Sham eigenvalues and eigenvectors using ELSI and the ELPA eigensolver.
  Finished Cholesky decomposition
  | Time :     0.000 s
  Finished transformation to standard eigenproblem
  | Time :     0.000 s
  Starting LAPACK eigensolver
  Finished solving standard eigenproblem
  | Time :     0.002 s
  Finished back-transformation of eigenvectors
  | Time :     0.000 s

  Obtaining occupation numbers and chemical potential using ELSI.
  | Chemical potential (Fermi level):    -7.80827568eV
  Writing Kohn-Sham eigenvalues.

  State    Occupation    Eigenvalue [Ha]    Eigenvalue [eV]
      1       2.00000         -18.909292         -514.54802
      2       2.00000         -18.829743         -512.38339
      3       2.00000         -14.112432         -384.01882
      4       2.00000         -10.114033         -275.21683
      5       2.00000         -10.068700         -273.98327
      6       2.00000         -10.033935         -273.03727
      7       2.00000          -1.135187          -30.89002
      8       2.00000          -1.036310          -28.19944
      9       2.00000          -0.934622          -25.43236
     10       2.00000          -0.800160          -21.77346
     11       2.00000          -0.702802          -19.12422
     12       2.00000          -0.637213          -17.33946
     13       2.00000          -0.589793          -16.04909
     14       2.00000          -0.568973          -15.48255
     15       2.00000          -0.524198          -14.26414
     16       2.00000          -0.495843          -13.49256
     17       2.00000          -0.489935          -13.33182
     18       2.00000          -0.481422          -13.10017
     19       2.00000          -0.451182          -12.27728
     20       2.00000          -0.435417          -11.84829
     21       2.00000          -0.421988          -11.48286
     22       2.00000          -0.366912           -9.98418
     23       2.00000          -0.360257           -9.80309
     24       2.00000          -0.309785           -8.42969
     25       0.00000          -0.112161           -3.05205
     26       0.00000          -0.050952           -1.38646
     27       0.00000           0.009143            0.24880
     28       0.00000           0.012522            0.34073
     29       0.00000           0.040325            1.09731
     30       0.00000           0.045440            1.23647
     31       0.00000           0.059859            1.62885
     32       0.00000           0.062152            1.69125
     33       0.00000           0.078551            2.13748
     34       0.00000           0.091476            2.48918
     35       0.00000           0.125879            3.42535
     36       0.00000           0.162447            4.42041
     37       0.00000           0.197564            5.37598
     38       0.00000           0.225352            6.13215
     39       0.00000           0.247027            6.72196
     40       0.00000           0.254585            6.92762
     41       0.00000           0.268405            7.30368
     42       0.00000           0.297987            8.10863
     43       0.00000           0.310460            8.44804
     44       0.00000           0.332000            9.03418
     45       0.00000           0.348856            9.49284
     46       0.00000           0.391281           10.64729
     47       0.00000           0.405567           11.03605
     48       0.00000           0.419660           11.41953
     49       0.00000           0.478872           13.03077
     50       0.00000           0.504881           13.73850
     51       0.00000           0.530701           14.44111
     52       0.00000           0.588193           16.00556
     53       0.00000           0.628904           17.11335

  Highest occupied state (VBM) at     -8.42968630 eV
  | Occupation number:      2.00000000

  Lowest unoccupied state (CBM) at    -3.05204994 eV
  | Occupation number:      0.00000000

  Overall HOMO-LUMO gap:      5.37763636 eV.

  Total energy components:
  | Sum of eigenvalues            :        -185.62027290 Ha       -5050.98461700 eV
  | XC energy correction          :         -42.13145093 Ha       -1146.45511082 eV
  | XC potential correction       :          54.16730335 Ha        1473.96731879 eV
  | Free-atom electrostatic energy:        -146.81509530 Ha       -3995.04200852 eV
  | Hartree energy correction     :          -3.18456655 Ha         -86.65646496 eV
  | vdW energy correction         :           0.00000000 Ha           0.00000000 eV
  | Entropy correction            :           0.00000000 Ha           0.00000000 eV
  | ---------------------------
  | Total energy                  :        -323.58408234 Ha       -8805.17088251 eV
  | Total energy, T -> 0          :        -323.58408234 Ha       -8805.17088251 eV  <-- do not rely on this value for anything but (periodic) metals
  | Electronic free energy        :        -323.58408234 Ha       -8805.17088251 eV

  Derived energy quantities:
  | Kinetic energy                :         322.29977797 Ha        8770.22318253 eV
  | Electrostatic energy          :        -603.75240937 Ha      -16428.93895422 eV
  | Energy correction for multipole
  | error in Hartree potential    :           0.01166133 Ha           0.31732084 eV
  | Sum of eigenvalues per atom                           :        -388.53727823 eV
  | Total energy (T->0) per atom                          :        -677.32083712 eV  <-- do not rely on this value for anything but (periodic) metals
  | Electronic free energy per atom                       :        -677.32083712 eV

  Self-consistency convergence accuracy:
  | Change of charge density      :  0.5760E+00
  | Change of sum of eigenvalues  :  0.8883E+02 eV
  | Change of total energy        :  0.4807E+01 eV

  End self-consistency iteration #     1       :  max(cpu_time)    wall_clock(cpu1)
  | Time for this iteration                    :        1.189 s           1.190 s
  | Charge density update                      :        0.396 s           0.397 s
  | Density mixing                             :        0.005 s           0.005 s
  | Hartree multipole update                   :        0.009 s           0.009 s
  | Hartree multipole summation                :        0.282 s           0.283 s
  | Integration                                :        0.494 s           0.494 s
  | Solution of K.-S. eqns.                    :        0.002 s           0.002 s
  | Total energy evaluation                    :        0.000 s           0.000 s

  Partial memory accounting:
  | Current value for overall tracked memory usage on task 0  :           0.165 MB
  | Peak value for overall tracked memory usage on task 0     :           0.695 MB after allocating gradient_basis_wave
  | Largest tracked array allocation on task 0 so far         :           0.397 MB  when allocating gradient_basis_wave
  Note:  These values currently only include a subset of arrays which are explicitly tracked.
  The "true" memory usage will be greater.
------------------------------------------------------------

------------------------------------------------------------
          Begin self-consistency iteration #    2

  Date     :  20200815, Time     :  003506.813
------------------------------------------------------------
  Evaluating new KS density.
  Integration grid: deviation in total charge (<rho> - N_e) =  -2.131628E-14
  Pulay mixing of updated and previous charge densities.

  Evaluating partitioned Hartree potential by multipole expansion.
  | Analytical far-field extrapolation by fixed multipoles:
  | Hartree multipole sum: apparent total charge =  -0.363115E-03
  Summing up the Hartree potential.
  Time summed over all CPUs for potential: real work        0.291 s, elapsed        0.291 s
  | RMS charge density error from multipole expansion :   0.140970E-01

  Integrating Hamiltonian matrix: batch-based integration.
  Time summed over all CPUs for integration: real work        0.496 s, elapsed        0.496 s

  Updating Kohn-Sham eigenvalues and eigenvectors using ELSI and the ELPA eigensolver.
  Finished Cholesky decomposition
  | Time :     0.000 s
  Finished transformation to standard eigenproblem
  | Time :     0.000 s
  Starting LAPACK eigensolver
  Finished solving standard eigenproblem
  | Time :     0.001 s
  Finished back-transformation of eigenvectors
  | Time :     0.000 s

  Obtaining occupation numbers and chemical potential using ELSI.
  | Chemical potential (Fermi level):    -2.49284479eV
  Highest occupied state (VBM) at     -6.57203476 eV
  | Occupation number:      2.00000000

  Lowest unoccupied state (CBM) at    -1.73396002 eV
  | Occupation number:      0.00000000

  Overall HOMO-LUMO gap:      4.83807474 eV.

  Checking to see if s.c.f. parameters should be adjusted.

  Total energy components:
  | Sum of eigenvalues            :        -182.18940275 Ha       -4957.62589013 eV
  | XC energy correction          :         -42.48285946 Ha       -1156.01742334 eV
  | XC potential correction       :          54.62259253 Ha        1486.35636772 eV
  | Free-atom electrostatic energy:        -146.81509530 Ha       -3995.04200852 eV
  | Hartree energy correction     :          -6.64373958 Ha        -180.78535232 eV
  | vdW energy correction         :           0.00000000 Ha           0.00000000 eV
  | Entropy correction            :           0.00000000 Ha           0.00000000 eV
  | ---------------------------
  | Total energy                  :        -323.50850456 Ha       -8803.11430659 eV
  | Total energy, T -> 0          :        -323.50850456 Ha       -8803.11430659 eV  <-- do not rely on this value for anything but (periodic) metals
  | Electronic free energy        :        -323.50850456 Ha       -8803.11430659 eV

  Derived energy quantities:
  | Kinetic energy                :         323.60043454 Ha        8805.61584866 eV
  | Electrostatic energy          :        -604.62607964 Ha      -16452.71273191 eV
  | Energy correction for multipole
  | error in Hartree potential    :           0.02565383 Ha           0.69807614 eV
  | Sum of eigenvalues per atom                           :        -381.35583770 eV
  | Total energy (T->0) per atom                          :        -677.16263897 eV  <-- do not rely on this value for anything but (periodic) metals
  | Electronic free energy per atom                       :        -677.16263897 eV

  Self-consistency convergence accuracy:
  | Change of charge density      :  0.3598E+00
  | Change of sum of eigenvalues  :  0.9336E+02 eV
  | Change of total energy        :  0.2057E+01 eV

  End self-consistency iteration #     2       :  max(cpu_time)    wall_clock(cpu1)
  | Time for this iteration                    :        1.183 s           1.203 s
  | Charge density update                      :        0.388 s           0.398 s
  | Density mixing                             :        0.007 s           0.007 s
  | Hartree multipole update                   :        0.009 s           0.009 s
  | Hartree multipole summation                :        0.282 s           0.291 s
  | Integration                                :        0.495 s           0.496 s
  | Solution of K.-S. eqns.                    :        0.002 s           0.002 s
  | Total energy evaluation                    :        0.000 s           0.000 s

  Partial memory accounting:
  | Current value for overall tracked memory usage on task 0  :           0.166 MB
  | Peak value for overall tracked memory usage on task 0     :           0.695 MB after allocating gradient_basis_wave
  | Largest tracked array allocation on task 0 so far         :           0.397 MB  when allocating gradient_basis_wave
  Note:  These values currently only include a subset of arrays which are explicitly tracked.
  The "true" memory usage will be greater.
------------------------------------------------------------

------------------------------------------------------------
          Begin self-consistency iteration #    3

  Date     :  20200815, Time     :  003508.019
------------------------------------------------------------
  Evaluating new KS density.
  Integration grid: deviation in total charge (<rho> - N_e) =   7.105427E-15
  Pulay mixing of updated and previous charge densities.

  Evaluating partitioned Hartree potential by multipole expansion.
  | Analytical far-field extrapolation by fixed multipoles:
  | Hartree multipole sum: apparent total charge =  -0.456721E-03
  Summing up the Hartree potential.
  Time summed over all CPUs for potential: real work        0.290 s, elapsed        0.290 s
  | RMS charge density error from multipole expansion :   0.223240E-01

  Integrating Hamiltonian matrix: batch-based integration.
  Time summed over all CPUs for integration: real work        0.495 s, elapsed        0.495 s

  Updating Kohn-Sham eigenvalues and eigenvectors using ELSI and the ELPA eigensolver.
  Finished Cholesky decomposition
  | Time :     0.000 s
  Finished transformation to standard eigenproblem
  | Time :     0.000 s
  Starting LAPACK eigensolver
  Finished solving standard eigenproblem
  | Time :     0.001 s
  Finished back-transformation of eigenvectors
  | Time :     0.000 s

  Obtaining occupation numbers and chemical potential using ELSI.
  | Chemical potential (Fermi level):    -1.79104975eV
  Highest occupied state (VBM) at     -5.93408766 eV
  | Occupation number:      2.00000000

  Lowest unoccupied state (CBM) at    -0.97179678 eV
  | Occupation number:      0.00000000

  Overall HOMO-LUMO gap:      4.96229088 eV.

  Total energy components:
  | Sum of eigenvalues            :        -180.82840229 Ha       -4920.59118326 eV
  | XC energy correction          :         -42.64040205 Ha       -1160.30437528 eV
  | XC potential correction       :          54.82346747 Ha        1491.82245291 eV
  | Free-atom electrostatic energy:        -146.81509530 Ha       -3995.04200852 eV
  | Hartree energy correction     :          -8.03574994 Ha        -218.66388136 eV
  | vdW energy correction         :           0.00000000 Ha           0.00000000 eV
  | Entropy correction            :           0.00000000 Ha           0.00000000 eV
  | ---------------------------
  | Total energy                  :        -323.49618210 Ha       -8802.77899551 eV
  | Total energy, T -> 0          :        -323.49618210 Ha       -8802.77899551 eV  <-- do not rely on this value for anything but (periodic) metals
  | Electronic free energy        :        -323.49618210 Ha       -8802.77899551 eV

  Derived energy quantities:
  | Kinetic energy                :         323.25324208 Ha        8796.16826109 eV
  | Electrostatic energy          :        -604.10902214 Ha      -16438.64288132 eV
  | Energy correction for multipole
  | error in Hartree potential    :           0.03658689 Ha           0.99557990 eV
  | Sum of eigenvalues per atom                           :        -378.50701410 eV
  | Total energy (T->0) per atom                          :        -677.13684581 eV  <-- do not rely on this value for anything but (periodic) metals
  | Electronic free energy per atom                       :        -677.13684581 eV

  Self-consistency convergence accuracy:
  | Change of charge density      :  0.2020E+00
  | Change of sum of eigenvalues  :  0.3703E+02 eV
  | Change of total energy        :  0.3353E+00 eV

  End self-consistency iteration #     3       :  max(cpu_time)    wall_clock(cpu1)
  | Time for this iteration                    :        1.182 s           1.198 s
  | Charge density update                      :        0.387 s           0.393 s
  | Density mixing                             :        0.008 s           0.008 s
  | Hartree multipole update                   :        0.009 s           0.009 s
  | Hartree multipole summation                :        0.281 s           0.291 s
  | Integration                                :        0.495 s           0.495 s
  | Solution of K.-S. eqns.                    :        0.002 s           0.002 s
  | Total energy evaluation                    :        0.000 s           0.000 s

  Partial memory accounting:
  | Current value for overall tracked memory usage on task 0  :           0.166 MB
  | Peak value for overall tracked memory usage on task 0     :           0.695 MB after allocating gradient_basis_wave
  | Largest tracked array allocation on task 0 so far         :           0.397 MB  when allocating gradient_basis_wave
  Note:  These values currently only include a subset of arrays which are explicitly tracked.
  The "true" memory usage will be greater.
------------------------------------------------------------

------------------------------------------------------------
          Begin self-consistency iteration #    4

  Date     :  20200815, Time     :  003509.218
------------------------------------------------------------
  Evaluating new KS density.
  Integration grid: deviation in total charge (<rho> - N_e) =   3.552714E-14
  Pulay mixing of updated and previous charge densities.

  Evaluating partitioned Hartree potential by multipole expansion.
  | Analytical far-field extrapolation by fixed multipoles:
  | Hartree multipole sum: apparent total charge =  -0.486581E-03
  Summing up the Hartree potential.
  Time summed over all CPUs for potential: real work        0.281 s, elapsed        0.281 s
  | RMS charge density error from multipole expansion :   0.258926E-01

  Integrating Hamiltonian matrix: batch-based integration.
  Time summed over all CPUs for integration: real work        0.495 s, elapsed        0.495 s

  Updating Kohn-Sham eigenvalues and eigenvectors using ELSI and the ELPA eigensolver.
  Finished Cholesky decomposition
  | Time :     0.000 s
  Finished transformation to standard eigenproblem
  | Time :     0.000 s
  Starting LAPACK eigensolver
  Finished solving standard eigenproblem
  | Time :     0.002 s
  Finished back-transformation of eigenvectors
  | Time :     0.000 s

  Obtaining occupation numbers and chemical potential using ELSI.
  | Chemical potential (Fermi level):    -1.71799685eV
  Highest occupied state (VBM) at     -5.67501968 eV
  | Occupation number:      2.00000000

  Lowest unoccupied state (CBM) at    -0.90612106 eV
  | Occupation number:      0.00000000

  Overall HOMO-LUMO gap:      4.76889862 eV.

  Total energy components:
  | Sum of eigenvalues            :        -180.75222500 Ha       -4918.51829377 eV
  | XC energy correction          :         -42.67454931 Ha       -1161.23356953 eV
  | XC potential correction       :          54.86606268 Ha        1492.98152753 eV
  | Free-atom electrostatic energy:        -146.81509530 Ha       -3995.04200852 eV
  | Hartree energy correction     :          -8.11932263 Ha        -220.93801009 eV
  | vdW energy correction         :           0.00000000 Ha           0.00000000 eV
  | Entropy correction            :           0.00000000 Ha           0.00000000 eV
  | ---------------------------
  | Total energy                  :        -323.49512956 Ha       -8802.75035437 eV
  | Total energy, T -> 0          :        -323.49512956 Ha       -8802.75035437 eV  <-- do not rely on this value for anything but (periodic) metals
  | Electronic free energy        :        -323.49512956 Ha       -8802.75035437 eV

  Derived energy quantities:
  | Kinetic energy                :         322.83632222 Ha        8784.82329457 eV
  | Electrostatic energy          :        -603.65690248 Ha      -16426.34007942 eV
  | Energy correction for multipole
  | error in Hartree potential    :           0.04077547 Ha           1.10955686 eV
  | Sum of eigenvalues per atom                           :        -378.34756106 eV
  | Total energy (T->0) per atom                          :        -677.13464264 eV  <-- do not rely on this value for anything but (periodic) metals
  | Electronic free energy per atom                       :        -677.13464264 eV

  Self-consistency convergence accuracy:
  | Change of charge density      :  0.6712E-01
  | Change of sum of eigenvalues  :  0.2073E+01 eV
  | Change of total energy        :  0.2864E-01 eV

  End self-consistency iteration #     4       :  max(cpu_time)    wall_clock(cpu1)
  | Time for this iteration                    :        1.183 s           1.184 s
  | Charge density update                      :        0.387 s           0.387 s
  | Density mixing                             :        0.009 s           0.009 s
  | Hartree multipole update                   :        0.009 s           0.009 s
  | Hartree multipole summation                :        0.281 s           0.281 s
  | Integration                                :        0.495 s           0.496 s
  | Solution of K.-S. eqns.                    :        0.002 s           0.002 s
  | Total energy evaluation                    :        0.000 s           0.000 s

  Partial memory accounting:
  | Current value for overall tracked memory usage on task 0  :           0.166 MB
  | Peak value for overall tracked memory usage on task 0     :           0.696 MB after allocating gradient_basis_wave
  | Largest tracked array allocation on task 0 so far         :           0.397 MB  when allocating gradient_basis_wave
  Note:  These values currently only include a subset of arrays which are explicitly tracked.
  The "true" memory usage will be greater.
------------------------------------------------------------

------------------------------------------------------------
          Begin self-consistency iteration #    5

  Date     :  20200815, Time     :  003510.405
------------------------------------------------------------
  Evaluating new KS density.
  Integration grid: deviation in total charge (<rho> - N_e) =   7.105427E-15
  Pulay mixing of updated and previous charge densities.

  Evaluating partitioned Hartree potential by multipole expansion.
  | Analytical far-field extrapolation by fixed multipoles:
  | Hartree multipole sum: apparent total charge =  -0.481777E-03
  Summing up the Hartree potential.
  Time summed over all CPUs for potential: real work        0.280 s, elapsed        0.280 s
  | RMS charge density error from multipole expansion :   0.256326E-01

  Integrating Hamiltonian matrix: batch-based integration.
  Time summed over all CPUs for integration: real work        0.495 s, elapsed        0.495 s

  Updating Kohn-Sham eigenvalues and eigenvectors using ELSI and the ELPA eigensolver.
  Finished Cholesky decomposition
  | Time :     0.000 s
  Finished transformation to standard eigenproblem
  | Time :     0.000 s
  Starting LAPACK eigensolver
  Finished solving standard eigenproblem
  | Time :     0.001 s
  Finished back-transformation of eigenvectors
  | Time :     0.000 s

  Obtaining occupation numbers and chemical potential using ELSI.
  | Chemical potential (Fermi level):    -1.75950347eV
  Highest occupied state (VBM) at     -5.79197333 eV
  | Occupation number:      2.00000000

  Lowest unoccupied state (CBM) at    -0.96981834 eV
  | Occupation number:      0.00000000

  Overall HOMO-LUMO gap:      4.82215498 eV.

  Total energy components:
  | Sum of eigenvalues            :        -180.88499884 Ha       -4922.13125364 eV
  | XC energy correction          :         -42.65665700 Ha       -1160.74669509 eV
  | XC potential correction       :          54.84288228 Ha        1492.35075672 eV
  | Free-atom electrostatic energy:        -146.81509530 Ha       -3995.04200852 eV
  | Hartree energy correction     :          -7.98094486 Ha        -217.17255936 eV
  | vdW energy correction         :           0.00000000 Ha           0.00000000 eV
  | Entropy correction            :           0.00000000 Ha           0.00000000 eV
  | ---------------------------
  | Total energy                  :        -323.49481372 Ha       -8802.74175989 eV
  | Total energy, T -> 0          :        -323.49481372 Ha       -8802.74175989 eV  <-- do not rely on this value for anything but (periodic) metals
  | Electronic free energy        :        -323.49481372 Ha       -8802.74175989 eV

  Derived energy quantities:
  | Kinetic energy                :         322.76525976 Ha        8782.88958670 eV
  | Electrostatic energy          :        -603.60341649 Ha      -16424.88465149 eV
  | Energy correction for multipole
  | error in Hartree potential    :           0.04022037 Ha           1.09445185 eV
  | Sum of eigenvalues per atom                           :        -378.62548105 eV
  | Total energy (T->0) per atom                          :        -677.13398153 eV  <-- do not rely on this value for anything but (periodic) metals
  | Electronic free energy per atom                       :        -677.13398153 eV

  Self-consistency convergence accuracy:
  | Change of charge density      :  0.2343E-01
  | Change of sum of eigenvalues  : -0.3613E+01 eV
  | Change of total energy        :  0.8594E-02 eV

  End self-consistency iteration #     5       :  max(cpu_time)    wall_clock(cpu1)
  | Time for this iteration                    :        1.184 s           1.185 s
  | Charge density update                      :        0.387 s           0.387 s
  | Density mixing                             :        0.011 s           0.011 s
  | Hartree multipole update                   :        0.009 s           0.009 s
  | Hartree multipole summation                :        0.281 s           0.281 s
  | Integration                                :        0.495 s           0.494 s
  | Solution of K.-S. eqns.                    :        0.002 s           0.002 s
  | Total energy evaluation                    :        0.000 s           0.000 s

  Partial memory accounting:
  | Current value for overall tracked memory usage on task 0  :           0.166 MB
  | Peak value for overall tracked memory usage on task 0     :           0.696 MB after allocating gradient_basis_wave
  | Largest tracked array allocation on task 0 so far         :           0.397 MB  when allocating gradient_basis_wave
  Note:  These values currently only include a subset of arrays which are explicitly tracked.
  The "true" memory usage will be greater.
------------------------------------------------------------

------------------------------------------------------------
          Begin self-consistency iteration #    6

  Date     :  20200815, Time     :  003511.590
------------------------------------------------------------
  Evaluating new KS density.
  Integration grid: deviation in total charge (<rho> - N_e) =   2.842171E-14
  Pulay mixing of updated and previous charge densities.

  Evaluating partitioned Hartree potential by multipole expansion.
  | Analytical far-field extrapolation by fixed multipoles:
  | Hartree multipole sum: apparent total charge =  -0.482803E-03
  Summing up the Hartree potential.
  Time summed over all CPUs for potential: real work        0.281 s, elapsed        0.281 s
  | RMS charge density error from multipole expansion :   0.259289E-01

  Integrating Hamiltonian matrix: batch-based integration.
  Time summed over all CPUs for integration: real work        0.494 s, elapsed        0.494 s

  Updating Kohn-Sham eigenvalues and eigenvectors using ELSI and the ELPA eigensolver.
  Finished Cholesky decomposition
  | Time :     0.000 s
  Finished transformation to standard eigenproblem
  | Time :     0.000 s
  Starting LAPACK eigensolver
  Finished solving standard eigenproblem
  | Time :     0.002 s
  Finished back-transformation of eigenvectors
  | Time :     0.000 s

  Obtaining occupation numbers and chemical potential using ELSI.
  | Chemical potential (Fermi level):    -1.78404758eV
  Highest occupied state (VBM) at     -5.81666624 eV
  | Occupation number:      2.00000000

  Lowest unoccupied state (CBM) at    -1.01352505 eV
  | Occupation number:      0.00000000

  Overall HOMO-LUMO gap:      4.80314119 eV.

  Total energy components:
  | Sum of eigenvalues            :        -180.94586375 Ha       -4923.78747210 eV
  | XC energy correction          :         -42.64904833 Ha       -1160.53965262 eV
  | XC potential correction       :          54.83297905 Ha        1492.08127615 eV
  | Free-atom electrostatic energy:        -146.81509530 Ha       -3995.04200852 eV
  | Hartree energy correction     :          -7.91770686 Ha        -215.45176571 eV
  | vdW energy correction         :           0.00000000 Ha           0.00000000 eV
  | Entropy correction            :           0.00000000 Ha           0.00000000 eV
  | ---------------------------
  | Total energy                  :        -323.49473518 Ha       -8802.73962279 eV
  | Total energy, T -> 0          :        -323.49473518 Ha       -8802.73962279 eV  <-- do not rely on this value for anything but (periodic) metals
  | Electronic free energy        :        -323.49473518 Ha       -8802.73962279 eV

  Derived energy quantities:
  | Kinetic energy                :         322.66754065 Ha        8780.23051437 eV
  | Electrostatic energy          :        -603.51322751 Ha      -16422.43048455 eV
  | Energy correction for multipole
  | error in Hartree potential    :           0.04033492 Ha           1.09756897 eV
  | Sum of eigenvalues per atom                           :        -378.75288247 eV
  | Total energy (T->0) per atom                          :        -677.13381714 eV  <-- do not rely on this value for anything but (periodic) metals
  | Electronic free energy per atom                       :        -677.13381714 eV

  Self-consistency convergence accuracy:
  | Change of charge density      :  0.1093E-01
  | Change of sum of eigenvalues  : -0.1656E+01 eV
  | Change of total energy        :  0.2137E-02 eV

  End self-consistency iteration #     6       :  max(cpu_time)    wall_clock(cpu1)
  | Time for this iteration                    :        1.185 s           1.187 s
  | Charge density update                      :        0.387 s           0.388 s
  | Density mixing                             :        0.012 s           0.012 s
  | Hartree multipole update                   :        0.009 s           0.009 s
  | Hartree multipole summation                :        0.281 s           0.281 s
  | Integration                                :        0.494 s           0.494 s
  | Solution of K.-S. eqns.                    :        0.002 s           0.002 s
  | Total energy evaluation                    :        0.000 s           0.001 s

  Partial memory accounting:
  | Current value for overall tracked memory usage on task 0  :           0.166 MB
  | Peak value for overall tracked memory usage on task 0     :           0.696 MB after allocating gradient_basis_wave
  | Largest tracked array allocation on task 0 so far         :           0.397 MB  when allocating gradient_basis_wave
  Note:  These values currently only include a subset of arrays which are explicitly tracked.
  The "true" memory usage will be greater.
------------------------------------------------------------

------------------------------------------------------------
          Begin self-consistency iteration #    7

  Date     :  20200815, Time     :  003512.779
------------------------------------------------------------
  Evaluating new KS density.
  Integration grid: deviation in total charge (<rho> - N_e) =  -7.105427E-15
  Pulay mixing of updated and previous charge densities.

  Evaluating partitioned Hartree potential by multipole expansion.
  | Analytical far-field extrapolation by fixed multipoles:
  | Hartree multipole sum: apparent total charge =  -0.484000E-03
  Summing up the Hartree potential.
  Time summed over all CPUs for potential: real work        0.281 s, elapsed        0.281 s
  | RMS charge density error from multipole expansion :   0.260799E-01

  Integrating Hamiltonian matrix: batch-based integration.
  Time summed over all CPUs for integration: real work        0.494 s, elapsed        0.494 s

  Updating Kohn-Sham eigenvalues and eigenvectors using ELSI and the ELPA eigensolver.
  Finished Cholesky decomposition
  | Time :     0.000 s
  Finished transformation to standard eigenproblem
  | Time :     0.000 s
  Starting LAPACK eigensolver
  Finished solving standard eigenproblem
  | Time :     0.002 s
  Finished back-transformation of eigenvectors
  | Time :     0.000 s

[...]
  |   Hirshfeld dipole moment :      0.06236396
  |   Hirshfeld second moments:     -0.00250869      -0.02641205      -0.01693349
  |                                 -0.02641205      -0.02641196       0.00886609
  |                                 -0.01693349       0.00886609      -0.02047027
  ----------------------------------------------------------------------
  | Atom    12: O
  |   Hirshfeld charge        :     -0.15013215
  |   Free atom volume        :     23.61338643
  |   Hirshfeld volume        :     21.14631626
  |   Hirshfeld dipole vector :      0.01394503       0.03991430      -0.00543040
  |   Hirshfeld dipole moment :      0.04262751
  |   Hirshfeld second moments:      0.06796206      -0.01643701       0.01995048
  |                                 -0.01643701       0.02711955       0.00453415
  |                                  0.01995048       0.00453415       0.06126036
  ----------------------------------------------------------------------
  | Atom    13: H
  |   Hirshfeld charge        :      0.13169800
  |   Free atom volume        :      9.95071624
  |   Hirshfeld volume        :      6.79034033
  |   Hirshfeld dipole vector :     -0.06110614       0.03000228      -0.05506126
  |   Hirshfeld dipole moment :      0.08755478
  |   Hirshfeld second moments:      0.10900014      -0.01063503       0.00589456
  |                                 -0.01063503       0.07326022       0.02601876
  |                                  0.00589456       0.02601876       0.09497576
  ----------------------------------------------------------------------


  Total energy components:
  | Sum of eigenvalues            :        -180.93566504 Ha       -4923.50995127 eV
  | XC energy correction          :         -42.64723879 Ha       -1160.49041270 eV
  | XC potential correction       :          54.83070338 Ha        1492.01935195 eV
  | Free-atom electrostatic energy:        -146.81509530 Ha       -3995.04200852 eV
  | Hartree energy correction     :          -7.92741878 Ha        -215.71604042 eV
  | vdW energy correction         :          -0.00318268 Ha          -0.08660515 eV
  | Entropy correction            :           0.00000000 Ha           0.00000000 eV
  | ---------------------------
  | Total energy                  :        -323.49789722 Ha       -8802.82566610 eV
  | Total energy, T -> 0          :        -323.49789722 Ha       -8802.82566610 eV  <-- do not rely on this value for anything but (periodic) metals
  | Electronic free energy        :        -323.49789722 Ha       -8802.82566610 eV

  Derived energy quantities:
  | Kinetic energy                :         322.63152741 Ha        8779.25054412 eV
  | Electrostatic energy          :        -603.47900315 Ha      -16421.49919238 eV
  | Energy correction for multipole
  | error in Hartree potential    :           0.04042787 Ha           1.10009818 eV
  | Sum of eigenvalues per atom                           :        -378.73153471 eV
  | Total energy (T->0) per atom                          :        -677.14043585 eV  <-- do not rely on this value for anything but (periodic) metals
  | Electronic free energy per atom                       :        -677.14043585 eV

  atomic forces [eV/Ang]:
  -----------------------
  atom #    1
   Hellmann-Feynman              :  0.157344E+00 -0.340757E+00  0.151113E+01
   Ionic forces                  :  0.000000E+00  0.000000E+00  0.000000E+00
   Multipole                     : -0.611792E-01  0.183889E+00 -0.201024E+00
   Pulay + GGA                   : -0.584568E+00  0.414554E+00 -0.160255E+01
   Van der Waals                 :  0.242013E-02  0.124879E-02 -0.122977E-02
   ----------------------------------------------------------------
   Total forces(   1)            : -0.485984E+00  0.258934E+00 -0.293676E+00
  atom #    2
   Hellmann-Feynman              :  0.258773E+00 -0.139841E-01 -0.133551E+00
   Ionic forces                  :  0.000000E+00  0.000000E+00  0.000000E+00
   Multipole                     :  0.183843E+00  0.327866E-01 -0.179719E-01
   Pulay + GGA                   : -0.160572E+00  0.306575E-01  0.282447E-01
   Van der Waals                 :  0.286747E-02 -0.349755E-02 -0.601108E-02
   ----------------------------------------------------------------
   Total forces(   2)            :  0.284911E+00  0.459624E-01 -0.129289E+00
  atom #    3
   Hellmann-Feynman              :  0.498383E+01  0.876070E+01 -0.425173E+01
   Ionic forces                  :  0.000000E+00  0.000000E+00  0.000000E+00
   Multipole                     : -0.172973E+00  0.130712E+00 -0.751806E+00
   Pulay + GGA                   : -0.423538E+01 -0.870317E+01  0.569312E+01
   Van der Waals                 :  0.369565E-02 -0.520963E-02 -0.859034E-02
   ----------------------------------------------------------------
   Total forces(   3)            :  0.579180E+00  0.183028E+00  0.680997E+00
  atom #    4
   Hellmann-Feynman              : -0.554381E-01 -0.639592E-01 -0.284013E+00
   Ionic forces                  :  0.000000E+00  0.000000E+00  0.000000E+00
   Multipole                     : -0.278324E-01 -0.891333E-01 -0.665278E-01
   Pulay + GGA                   :  0.272631E-01  0.247641E+00  0.213507E-01
   Van der Waals                 : -0.100149E-02  0.503850E-02 -0.516002E-02
   ----------------------------------------------------------------
   Total forces(   4)            : -0.570090E-01  0.995871E-01 -0.334351E+00
  atom #    5
   Hellmann-Feynman              : -0.426879E+00  0.672531E-01 -0.203711E+00
   Ionic forces                  :  0.000000E+00  0.000000E+00  0.000000E+00
   Multipole                     : -0.914173E-01 -0.258486E-01 -0.481140E-01
   Pulay + GGA                   :  0.245164E+00  0.142269E+00 -0.903769E-01
   Van der Waals                 : -0.140111E-02  0.591590E-02 -0.132564E-01
   ----------------------------------------------------------------
   Total forces(   5)            : -0.274533E+00  0.189590E+00 -0.355459E+00
  atom #    6
   Hellmann-Feynman              :  0.298174E+00 -0.211212E+00  0.120534E+00
   Ionic forces                  :  0.000000E+00  0.000000E+00  0.000000E+00
   Multipole                     : -0.178089E+00  0.651403E+00  0.260166E+00
   Pulay + GGA                   :  0.134167E+00 -0.792191E+00 -0.487997E+00
   Van der Waals                 : -0.119884E-02  0.513518E-02 -0.260866E-02
   ----------------------------------------------------------------
   Total forces(   6)            :  0.253054E+00 -0.346865E+00 -0.109905E+00
  atom #    7
   Hellmann-Feynman              : -0.262674E+00 -0.537605E-01 -0.348628E-01
   Ionic forces                  :  0.000000E+00  0.000000E+00  0.000000E+00
   Multipole                     : -0.117353E+00  0.503472E-01  0.356530E-01
   Pulay + GGA                   :  0.110615E+00  0.342091E-01  0.432427E-01
   Van der Waals                 : -0.227173E-02  0.285942E-02  0.809105E-02
   ----------------------------------------------------------------
   Total forces(   7)            : -0.271683E+00  0.336552E-01  0.521239E-01
  atom #    8
   Hellmann-Feynman              :  0.337680E-01 -0.107579E+00  0.108922E+00
   Ionic forces                  :  0.000000E+00  0.000000E+00  0.000000E+00
   Multipole                     :  0.153754E-01  0.703796E-01  0.130445E+00
   Pulay + GGA                   : -0.473567E-01 -0.438113E-01 -0.103058E+00
   Van der Waals                 : -0.314164E-02  0.111096E-01  0.111093E-02
   ----------------------------------------------------------------
   Total forces(   8)            : -0.135492E-02 -0.699010E-01  0.137420E+00
  atom #    9
   Hellmann-Feynman              :  0.762982E-01  0.431141E-01 -0.165166E+00
   Ionic forces                  :  0.000000E+00  0.000000E+00  0.000000E+00
   Multipole                     :  0.221030E-01  0.132056E+00 -0.874566E-02
   Pulay + GGA                   : -0.402239E-01 -0.101968E+00  0.296527E-01
   Van der Waals                 : -0.347621E-02  0.184494E-02  0.315455E-02
   ----------------------------------------------------------------
   Total forces(   9)            :  0.547011E-01  0.750469E-01 -0.141105E+00
  atom #   10
   Hellmann-Feynman              :  0.249576E+01  0.408753E+01  0.233935E+01
   Ionic forces                  :  0.000000E+00  0.000000E+00  0.000000E+00
   Multipole                     :  0.486457E-01 -0.528650E-01  0.154890E+00
   Pulay + GGA                   : -0.124865E+01 -0.300298E+01 -0.266944E+00
   Van der Waals                 :  0.503975E-02 -0.165623E-01  0.906525E-02
   ----------------------------------------------------------------
   Total forces(  10)            :  0.130080E+01  0.101512E+01  0.223637E+01
  atom #   11
   Hellmann-Feynman              :  0.410728E+01 -0.240136E+01  0.142373E+02
   Ionic forces                  :  0.000000E+00  0.000000E+00  0.000000E+00
   Multipole                     :  0.167112E-01 -0.484559E+00  0.971702E+00
   Pulay + GGA                   : -0.315322E+01  0.333186E+01 -0.141812E+02
   Van der Waals                 : -0.822986E-03 -0.121300E-01  0.594598E-02
   ----------------------------------------------------------------
   Total forces(  11)            :  0.969945E+00  0.433811E+00  0.103377E+01
  atom #   12
   Hellmann-Feynman              : -0.374279E+01 -0.141282E+02  0.917139E-02
   Ionic forces                  :  0.000000E+00  0.000000E+00  0.000000E+00
   Multipole                     : -0.100966E+01 -0.150492E+01  0.764796E-01
   Pulay + GGA                   :  0.292225E+01  0.142106E+02 -0.160284E+01
   Van der Waals                 : -0.233910E-03 -0.198400E-02  0.111216E-01
   ----------------------------------------------------------------
   Total forces(  12)            : -0.183043E+01 -0.142446E+01 -0.150606E+01
  atom #   13
   Hellmann-Feynman              : -0.631284E+00 -0.281561E+00 -0.152746E+01
   Ionic forces                  :  0.000000E+00  0.000000E+00  0.000000E+00
   Multipole                     : -0.512951E-01  0.646745E-01 -0.632221E-01
   Pulay + GGA                   :  0.158005E+00 -0.282348E+00  0.315813E+00
   Van der Waals                 : -0.475075E-03  0.623108E-02 -0.163316E-02
   ----------------------------------------------------------------
   Total forces(  13)            : -0.525049E+00 -0.493003E+00 -0.127650E+01

  Timings for VdW correction (Tkatchenko-Scheffler 2009 or later):
  | CPU time:        0.091 s, Wall clock time:        0.092 s.
  Removing unitary transformations (pure translations, rotations) from forces on atoms.
  Atomic forces before filtering:
  | Net force on center of mass :  -0.345532E-02  0.505288E-03 -0.567222E-02 eV/A
  | Net torque on center of mass:   0.532764E-02  0.220591E-03 -0.312619E-02 eV
  Atomic forces after filtering:
  | Net force on center of mass :  -0.892031E-16  0.000000E+00 -0.356812E-15 eV/A
  | Net torque on center of mass:   0.991289E-15  0.188817E-15  0.283225E-15 eV

  Energy and forces in a compact form:
  | Total energy uncorrected      :         -0.880282566610234E+04 eV
  | Total energy corrected        :         -0.880282566610234E+04 eV  <-- do not rely on this value for anything but (periodic) metals
  | Electronic free energy        :         -0.880282566610234E+04 eV
  Total atomic forces (unitary forces cleaned) [eV/Ang]:
  |   1         -0.485727880387187E+00          0.258936632373724E+00         -0.293250913957245E+00
  |   2          0.285167011211831E+00          0.460748530491003E-01         -0.128858305928159E+00
  |   3          0.579443758590510E+00          0.182787380594699E+00          0.681419121048842E+00
  |   4         -0.566547775462246E-01          0.993142272735497E-01         -0.333806059367639E+00
  |   5         -0.274278190018742E+00          0.189246774063171E+00         -0.355053235249424E+00
  |   6          0.253178472960105E+00         -0.346812318826811E+00         -0.109656256063896E+00
  |   7         -0.271560862561093E+00          0.335996700234689E-01          0.523630426271753E-01
  |   8         -0.123691974989064E-02         -0.696702104830633E-01          0.137669414461294E+00
  |   9          0.547378146272348E-01          0.750663127619578E-01         -0.140977659124926E+00
  |  10          0.130118248159552E+01          0.101518907950327E+01          0.223696636443039E+01
  |  11          0.970348684039014E+00          0.434062046580499E+00          0.103440712297048E+01
  |  12         -0.182996328815117E+01         -0.142456411350378E+01         -0.150535081858223E+01
  |  13         -0.524636304609906E+00         -0.493230333409790E+00         -0.127587181726467E+01

  ------------------------------------ 
  Start decomposition of the XC Energy 
  ------------------------------------ 
  X and C from original XC functional choice 
  Hartree-Fock Energy :          0.000000000 Ha              0.000000000 eV
  X Energy            :        -41.043903420 Ha          -1116.861437355 eV
  C Energy            :         -1.603335374 Ha            -43.628975342 eV
  Total XC Energy     :        -42.647238794 Ha          -1160.490412697 eV
  ------------------------------------ 
  LDA X and C from self-consistent density 
  X Energy LDA        :        -37.266108928 Ha          -1014.062418871 eV
  C Energy LDA        :         -3.139433727 Ha            -85.428338264 eV
  ------------------------------------ 
  End decomposition of the XC Energy 
  ------------------------------------ 

------------------------------------------------------------

------------------------------------------------------------------------------
  Final output of selected total energy values:

  The following output summarizes some interesting total energy values
  at the end of a run (AFTER all relaxation, molecular dynamics, etc.).

  | Total energy of the DFT / Hartree-Fock s.c.f. calculation      :          -8802.825666102 eV
  | Final zero-broadening corrected energy (caution - metals only) :          -8802.825666102 eV
  | For reference only, the value of 1 Hartree used in FHI-aims is :             27.211384500 eV

  Before relying on these values, please be sure to understand exactly which
  total energy value is referred to by a given number. Different objects may
  all carry the same name 'total energy'. Definitions:

  Total energy of the DFT / Hartree-Fock s.c.f. calculation:
  | Note that this energy does not include ANY quantities calculated after the
  | s.c.f. cycle, in particular not ANY RPA, MP2, etc. many-body perturbation terms.

  Final zero-broadening corrected energy:
  | For metallic systems only, a broadening of the occupation numbers at the Fermi
  | level can be extrapolated back to zero broadening by an electron-gas inspired
  | formula. For all systems that are not real metals, this value can be
  | meaningless and should be avoided.

------------------------------------------------------------------------------
  Methods described in the following list of references were used in this FHI-aims run.
  If you publish the results, please make sure to cite these reference if they apply.
  FHI-aims is an academic code, and for our developers (often, Ph.D. students
  and postdocs), scientific credit in the community is essential.
  Thank you for helping us!

  For any use of FHI-aims, please cite:

    Volker Blum, Ralf Gehrke, Felix Hanke, Paula Havu, Ville Havu,
    Xinguo Ren, Karsten Reuter, and Matthias Scheffler
    'Ab initio molecular simulations with numeric atom-centered orbitals'
    Computer Physics Communications 180, 2175-2196 (2009)
    http://dx.doi.org/10.1016/j.cpc.2009.06.022


  The scalable eigensolver library ELPA was used in your run.
  ELPA is essential especially for large systems on hundreds or thousands of CPUs.
  For ELPA, please cite:

    Andreas Marek, Volker Blum, Rainer Johanni, Ville Havu, Bruno Lang,
    Thomas Auckenthaler, Alexander Heinecke, Hans-Joachim Bungartz, and Hermann Lederer,
    'The ELPA Library - Scalable Parallel Eigenvalue Solutions
    for Electronic Structure Theory and Computational Science'
    The Journal of Physics: Condensed Matter 26, 213201 (2014).
    http://dx.doi.org/10.1088/0953-8984/26/21/213201


  The ELSI infrastructure was used in your run to solve the Kohn-Sham electronic structure.
  Please check out http://elsi-interchange.org to learn more.
  If scalability is important for your project, please acknowledge ELSI by citing:

    V. W-z. Yu, F. Corsetti, A. Garcia, W. P. Huhn, M. Jacquelin, W. Jia,
    B. Lange, L. Lin, J. Lu, W. Mi, A. Seifitokaldani, A. Vazquez-Mayagoitia,
    C. Yang, H. Yang, and V. Blum
    'ELSI: A unified software interface for Kohn-Sham electronic structure solvers'
    Computer Physics Communications 222, 267-285 (2018).
    http://dx.doi.org/10.1016/j.cpc.2017.09.007


  For the real-space grid partitioning and parallelization used in this calculation, please cite:

    Ville Havu, Volker Blum, Paula Havu, and Matthias Scheffler,
    'Efficient O(N) integration for all-electron electronic structure calculation'
    'using numerically tabulated basis functions'
    Journal of Computational Physics 228, 8367-8379 (2009).
    http://dx.doi.org/10.1016/j.jcp.2009.08.008

  Of course, there are many other important community references, e.g., those cited in the
  above references. Our list is limited to references that describe implementations in the
  FHI-aims code. The reason is purely practical (length of this list) - please credit others as well.

------------------------------------------------------------
          Leaving FHI-aims.
          Date     :  20200815, Time     :  003527.097

          Computational steps:
          | Number of self-consistency cycles          :           16
          | Number of SCF (re)initializations          :            1

          Detailed time accounting                     :  max(cpu_time)    wall_clock(cpu1)
          | Total time                                 :       22.695 s          22.791 s
          | Preparation time                           :        0.146 s           0.147 s
          | Boundary condition initalization           :        0.000 s           0.000 s
          | Grid partitioning                          :        0.111 s           0.112 s
          | Preloading free-atom quantities on grid    :        0.002 s           0.003 s
          | Free-atom superposition energy             :        0.085 s           0.085 s
          | Total time for integrations                :        8.618 s           8.624 s
          | Total time for solution of K.-S. equations :        0.036 s           0.037 s
          | Total time for density & force components  :        7.155 s           7.177 s
          | Total time for mixing                      :        0.212 s           0.213 s
          | Total time for Hartree multipole update    :        0.139 s           0.141 s
          | Total time for Hartree multipole sum       :        5.791 s           5.817 s
          | Total time for total energy evaluation     :        0.003 s           0.002 s
          | Total time for vdW correction              :        0.091 s           0.092 s

          Partial memory accounting:
          | Residual value for overall tracked memory usage across tasks :           0.000 MB (should be 0.000 MB)
          | Peak values for overall tracked memory usage (after allocating hessian_basis_wave):
          |   Minimum:        1.622 MB (on task 1)
          |   Maximum:        1.622 MB (on task 1)
          |   Average:        1.622 MB
          | Largest tracked array allocation (hessian_basis_wave):
          |   Minimum:        0.794 MB (on task 1)
          |   Maximum:        0.794 MB (on task 1)
          |   Average:        0.794 MB
          Note:  These values currently only include a subset of arrays which are explicitly tracked.
          The "true" memory usage will be greater.

          Have a nice day.
------------------------------------------------------------
