  MPI-parallelism will be employed.
------------------------------------------------------------
          Invoking FHI-aims ...
          Version 171221_1
          Compiled on 2019/09/09 at 14:39:39 on host puhti-login2.bullx.

          When using FHI-aims, please cite the following reference:

          Volker Blum, Ralf Gehrke, Felix Hanke, Paula Havu,
          Ville Havu, Xinguo Ren, Karsten Reuter, and Matthias Scheffler,
          'Ab Initio Molecular Simulations with Numeric Atom-Centered Orbitals',
          Computer Physics Communications 180, 2175-2196 (2009)

          For any questions about FHI-aims, please visit the aimsclub website
          with its forums and wiki. Contributions to both the forums and the
          wiki are warmly encouraged - they are for you, and everyone is welcome there.

------------------------------------------------------------



  Date     :  20200710, Time     :  152615.277
  Time zero on CPU 1             :   0.173290000000000E-01  s.
  Internal wall clock time zero  :           363626775.277  s.

  FHI-aims created a unique identifier for this run for later identification
  aims_uuid : D6D8A142-0A4F-46B8-AFE6-FAAD0E747490

  Using        1 parallel tasks.
  Task        0 on host r18c44.bullx reporting.

  Performing system and environment tests:
  | Environment variable OMP_NUM_THREADS correctly set to 1.
  | Stacksize not measured: no C compiler
  | Checking for scalapack...
  | Testing pdtran()...
  | All pdtran() tests passed.

  Obtaining array dimensions for all initial allocations:
  
  -----------------------------------------------------------------------
  Parsing control.in (first pass over file, find array dimensions only).
  The contents of control.in will be repeated verbatim below
  unless switched off by setting 'verbatim_writeout .false.' .
  in the first line of control.in .
  -----------------------------------------------------------------------
  
  #########################################################################################
  #
  #  Volker Blum, FHI 2009 : Test run input file control.in for simple H2O
  #
  #########################################################################################
  #
  #  Physical model
  #
    xc                 pbe
    vdw_correction_hirshfeld
    spin               none
    relativistic       none
    charge             0.
  #
  #  SCF convergence
  #
    occupation_type    gaussian 0.01
    mixer              pulay
      n_max_pulay        10
      charge_mix_param   0.2
    sc_accuracy_rho    1E-5
    sc_accuracy_eev    1E-3
    sc_accuracy_etot   1E-6
    sc_accuracy_forces 1E-4
    sc_iter_limit      100
  #
  #  Relaxation
  #
  #  relax_geometry   bfgs 1.e-3
  #
  ################################################################################
  #
  #  FHI-aims code project
  #  VB, Fritz-Haber Institut, 2009
  #
  #  Suggested "light" defaults for H atom (to be pasted into control.in file)
  #  Be sure to double-check any results obtained with these settings for post-processing,
  #  e.g., with the "tight" defaults and larger basis sets.
  #
  ################################################################################
    species        H
  #     global species definitions
      nucleus             1
      mass                1.00794
  #
      l_hartree           4
  #
      cut_pot             3.5  1.5  1.0
      basis_dep_cutoff    1e-4
  #
      radial_base         24 5.0
      radial_multiplier   1
      angular_grids       specified
        division   0.2421   50
        division   0.3822  110
        division   0.4799  194
        division   0.5341  302
  #      division   0.5626  434
  #      division   0.5922  590
  #      division   0.6542  770
  #      division   0.6868 1202
  #      outer_grid  770
        outer_grid  302
  ################################################################################
  #
  #  Definition of "minimal" basis
  #
  ################################################################################
  #     valence basis states
      valence      1  s   1.
  #     ion occupancy
      ion_occ      1  s   0.5
  ################################################################################
  #
  #  Suggested additional basis functions. For production calculations,
  #  uncomment them one after another (the most important basis functions are
  #  listed first).
  #
  #  Basis constructed for dimers: 0.5 A, 0.7 A, 1.0 A, 1.5 A, 2.5 A
  #
  ################################################################################
  #  "First tier" - improvements: -1014.90 meV to -62.69 meV
       hydro 2 s 2.1
       hydro 2 p 3.5
  #  "Second tier" - improvements: -12.89 meV to -1.83 meV
  #     hydro 1 s 0.85
  #     hydro 2 p 3.7
  #     hydro 2 s 1.2
  #     hydro 3 d 7
  #  "Third tier" - improvements: -0.25 meV to -0.12 meV
  #     hydro 4 f 11.2
  #     hydro 3 p 4.8
  #     hydro 4 d 9
  #     hydro 3 s 3.2
  ################################################################################
  #
  #  FHI-aims code project
  #  VB, Fritz-Haber Institut, 2009
  #
  #  Suggested "light" defaults for C atom (to be pasted into control.in file)
  #  Be sure to double-check any results obtained with these settings for post-processing,
  #  e.g., with the "tight" defaults and larger basis sets.
  #
  ################################################################################
    species        C
  #     global species definitions
      nucleus             6
      mass                12.0107
  #
      l_hartree           4
  #
      cut_pot             3.5  1.5  1.0
      basis_dep_cutoff    1e-4
  #
      radial_base         34 5.0
      radial_multiplier   1
      angular_grids specified
        division   0.3326   50
        division   0.5710  110
        division   0.7727  194
        division   0.8772  302
  #      division   0.9334  434
  #      division   0.9625  590
  #      division   0.9924  770
  #      division   1.0230  974
  #      division   1.4589 1202
  #     outer_grid  974
       outer_grid 302
  ################################################################################
  #
  #  Definition of "minimal" basis
  #
  ################################################################################
  #     valence basis states
      valence      2  s   2.
      valence      2  p   2.
  #     ion occupancy
      ion_occ      2  s   1.
      ion_occ      2  p   1.
  ################################################################################
  #
  #  Suggested additional basis functions. For production calculations,
  #  uncomment them one after another (the most important basis functions are
  #  listed first).
  #
  #  Constructed for dimers: 1.0 A, 1.25 A, 1.5 A, 2.0 A, 3.0 A
  #
  ################################################################################
  #  "First tier" - improvements: -1214.57 meV to -155.61 meV
       hydro 2 p 1.7
       hydro 3 d 6
       hydro 2 s 4.9
  #  "Second tier" - improvements: -67.75 meV to -5.23 meV
  #     hydro 4 f 9.8
  #     hydro 3 p 5.2
  #     hydro 3 s 4.3
  #     hydro 5 g 14.4
  #     hydro 3 d 6.2
  #  "Third tier" - improvements: -2.43 meV to -0.60 meV
  #     hydro 2 p 5.6
  #     hydro 2 s 1.4
  #     hydro 3 d 4.9
  #     hydro 4 f 11.2
  #  "Fourth tier" - improvements: -0.39 meV to -0.18 meV
  #     hydro 2 p 2.1
  #     hydro 5 g 16.4
  #     hydro 4 d 13.2
  #     hydro 3 s 13.6
  #     hydro 4 f 17.6
  #  Further basis functions - improvements: -0.08 meV and below
  #     hydro 3 s 2
  #     hydro 3 p 6
  #     hydro 4 d 20
  ################################################################################
  #
  #  FHI-aims code project
  #  VB, Fritz-Haber Institut, 2009
  #
  #  Suggested "light" defaults for N atom (to be pasted into control.in file)
  #  Be sure to double-check any results obtained with these settings for post-processing,
  #  e.g., with the "tight" defaults and larger basis sets.
  #
  ################################################################################
    species        N
  #     global species definitions
      nucleus             7
      mass                14.0067
  #
      l_hartree           4
  #
      cut_pot             3.5  1.5  1.0
      basis_dep_cutoff    1e-4
  #
      radial_base         35 5.0
      radial_multiplier   1
      angular_grids       specified
        division   0.2599   50
        division   0.4601  110
        division   0.5885  194
        division   0.6503  302
  #      division   0.6939  434
  #      division   0.7396  590
  #      division   0.7632  770
  #      division   0.8122  974
  #      division   1.1604 1202
  #      outer_grid  974
        outer_grid  302
  ################################################################################
  #
  #  Definition of "minimal" basis
  #
  ################################################################################
  #     valence basis states
      valence      2  s   2.
      valence      2  p   3.
  #     ion occupancy
      ion_occ      2  s   1.
      ion_occ      2  p   2.
  ################################################################################
  #
  #  Suggested additional basis functions. For production calculations,
  #  uncomment them one after another (the most important basis functions are
  #  listed first).
  #
  #  Constructed for dimers: 1.0 A, 1.1 A, 1.5 A, 2.0 A, 3.0 A
  #
  ################################################################################
  #  "First tier" - improvements: -1193.42 meV to -220.60 meV
       hydro 2 p 1.8
       hydro 3 d 6.8
       hydro 3 s 5.8
  #  "Second tier" - improvements: -80.21 meV to -6.86 meV
  #     hydro 4 f 10.8
  #     hydro 3 p 5.8
  #     hydro 1 s 0.8
  #     hydro 5 g 16
  #     hydro 3 d 4.9
  #  "Third tier" - improvements: -4.29 meV to -0.53 meV
  #     hydro 3 s 16
  #     ionic 2 p auto
  #     hydro 3 d 6.6
  #     hydro 4 f 11.6
  #  "Fourth tier" - improvements: -0.75 meV to -0.25 meV
  #     hydro 2 p 4.5
  #     hydro 2 s 2.4
  #     hydro 5 g 14.4
  #     hydro 4 d 14.4
  #     hydro 4 f 16.8
  # Further basis functions - -0.21 meV and below
  #     hydro 3 p 14.8
  #     hydro 3 s 4.4
  #     hydro 3 d 19.6
  #     hydro 5 g 12.8
  ################################################################################
  #
  #  FHI-aims code project
  #  VB, Fritz-Haber Institut, 2009
  #
  #  Suggested "light" defaults for O atom (to be pasted into control.in file)
  #  Be sure to double-check any results obtained with these settings for post-processing,
  #  e.g., with the "tight" defaults and larger basis sets.
  #
  ################################################################################
    species        O
  #     global species definitions
      nucleus             8
      mass                15.9994
  #
      l_hartree           4
  #
      cut_pot             3.5  1.5  1.0
      basis_dep_cutoff    1e-4
  #
      radial_base         36 5.0
      radial_multiplier   1
       angular_grids specified
        division   0.2659   50
        division   0.4451  110
        division   0.6052  194
        division   0.7543  302
  #      division   0.8014  434
  #      division   0.8507  590
  #      division   0.8762  770
  #      division   0.9023  974
  #      division   1.2339 1202
  #      outer_grid 974
        outer_grid 302
  ################################################################################
  #
  #  Definition of "minimal" basis
  #
  ################################################################################
  #     valence basis states
      valence      2  s   2.
      valence      2  p   4.
  #     ion occupancy
      ion_occ      2  s   1.
      ion_occ      2  p   3.
  ################################################################################
  #
  #  Suggested additional basis functions. For production calculations,
  #  uncomment them one after another (the most important basis functions are
  #  listed first).
  #
  #  Constructed for dimers: 1.0 A, 1.208 A, 1.5 A, 2.0 A, 3.0 A
  #
  ################################################################################
  #  "First tier" - improvements: -699.05 meV to -159.38 meV
       hydro 2 p 1.8
       hydro 3 d 7.6
       hydro 3 s 6.4
  #  "Second tier" - improvements: -49.91 meV to -5.39 meV
  #     hydro 4 f 11.6
  #     hydro 3 p 6.2
  #     hydro 3 d 5.6
  #     hydro 5 g 17.6
  #     hydro 1 s 0.75
  #  "Third tier" - improvements: -2.83 meV to -0.50 meV
  #     ionic 2 p auto
  #     hydro 4 f 10.8
  #     hydro 4 d 4.7
  #     hydro 2 s 6.8
  #  "Fourth tier" - improvements: -0.40 meV to -0.12 meV
  #     hydro 3 p 5
  #     hydro 3 s 3.3
  #     hydro 5 g 15.6
  #     hydro 4 f 17.6
  #     hydro 4 d 14
  # Further basis functions - -0.08 meV and below
  #     hydro 3 s 2.1
  #     hydro 4 d 11.6
  #     hydro 3 p 16
  #     hydro 2 s 17.2
  
  -----------------------------------------------------------------------
  Completed first pass over input file control.in .
  -----------------------------------------------------------------------
  
  
  -----------------------------------------------------------------------
  Parsing geometry.in (first pass over file, find array dimensions only).
  The contents of geometry.in will be repeated verbatim below
  unless switched off by setting 'verbatim_writeout .false.' .
  in the first line of geometry.in .
  -----------------------------------------------------------------------
  
  atom  0.00000 0.00000 0.00000 C
  atom  1.09300 0.00000 0.00000 H
  atom  -0.47961 0.00000 -1.41207 N
  atom  0.29911 0.25183 -2.02200 H
  atom  -0.81948 -0.93157 -1.64183 H
  atom  -0.49584 1.26211 0.72868 C
  atom  -1.58789 1.28919 0.74431 H
  atom  -0.13407 1.27425 1.75947 H
  atom  -0.13407 2.16087 0.22380 H
  atom  -0.39425 -1.28861 0.74398 C
  atom  -0.10189 -1.56493 1.88303 O
  atom  -1.10210 -2.13717 0.06896 O
  atom  -0.44120 -2.36855 -0.60532 H
  
  -----------------------------------------------------------------------
  Completed first pass over input file geometry.in .
  -----------------------------------------------------------------------
  

  Basic array size parameters:
  | Number of species                 :        4
  | Number of atoms                   :       13
  | Max. basis fn. angular momentum   :        2
  | Max. atomic/ionic basis occupied n:        2
  | Max. number of basis fn. types    :        2
  | Max. radial fns per species/type  :        3
  | Max. logarithmic grid size        :     1301
  | Max. radial integration grid size :       36
  | Max. angular integration grid size:      302
  | Max. angular grid division number :        8
  | Radial grid for Hartree potential :     1301
  | Number of spin channels           :        1

------------------------------------------------------------
          Reading file control.in.
------------------------------------------------------------
  XC: Using PBE gradient-corrected functionals.
  Spin treatment: No spin polarisation.
  Non-relativistic treatment of kinetic energy.
  Charge =   0.000000E+00: Neutral system requested explicitly.
  Occupation type: Gaussian broadening, width =   0.100000E-01 eV.
  Using pulay charge density mixing.
  Pulay mixing - number of memorized iterations:   10
  Charge density mixing - mixing parameter:     0.2000
  Convergence accuracy of self-consistent charge density:  0.1000E-04
  Convergence accuracy of sum of eigenvalues:  0.1000E-02
  Convergence accuracy of total energy:  0.1000E-05
  Convergence accuracy of forces:  0.1000E-03
  Maximum number of s.-c. iterations  :   100
 
  Reading configuration options for species H                   .
  | Found nuclear charge :   1.0000
  | Found atomic mass :    1.00794000000000      amu
  | Found l_max for Hartree potential  :   4
  | Found cutoff potl. onset [A], width [A], scale factor :    3.50000    1.50000    1.00000
  | Threshold for basis-dependent cutoff potential is   0.100000E-03
  | Found data for basic radial integration grid :    24 points, outermost radius =    5.000 A
  | Found multiplier for basic radial grid :   1
  | Found angular grid specification: user-specified.
  | Specified grid contains     5 separate shells.
  | Check grid settings after all constraints further below.
  | Found free-atom valence shell :  1 s   1.000
  | No ionic wave fns used. Skipping ion_occ.
  | Found hydrogenic basis function :  2 s   2.100
  | Found hydrogenic basis function :  2 p   3.500
  Species H                   : Missing cutoff potential type.
  Defaulting to exp(1/x)/(1-x)^2 type cutoff potential.
  Species H : No 'logarithmic' tag. Using default grid for free atom:
  | Default logarithmic grid data [bohr] : 0.1000E-03 0.1000E+03 0.1012E+01
  Species H : On-site basis accuracy parameter (for Gram-Schmidt orthonormalisation) not specified.
  Using default value basis_acc =  0.1000000E-03.
  Species H                   : Using default innermost maximum threshold i_radial=  2 for radial functions.
  Species H                   : Default cutoff onset for free atom density etc. : 0.35000000E+01 AA.
  Species H                   : Basic radial grid will be enhanced according to radial_multiplier =   1, to contain    24 grid points.
 
  Reading configuration options for species C                   .
  | Found nuclear charge :   6.0000
  | Found atomic mass :    12.0107000000000      amu
  | Found l_max for Hartree potential  :   4
  | Found cutoff potl. onset [A], width [A], scale factor :    3.50000    1.50000    1.00000
  | Threshold for basis-dependent cutoff potential is   0.100000E-03
  | Found data for basic radial integration grid :    34 points, outermost radius =    5.000 A
  | Found multiplier for basic radial grid :   1
  | Found angular grid specification: user-specified.
  | Specified grid contains     5 separate shells.
  | Check grid settings after all constraints further below.
  | Found free-atom valence shell :  2 s   2.000
  | Found free-atom valence shell :  2 p   2.000
  | No ionic wave fns used. Skipping ion_occ.
  | No ionic wave fns used. Skipping ion_occ.
  | Found hydrogenic basis function :  2 p   1.700
  | Found hydrogenic basis function :  3 d   6.000
  | Found hydrogenic basis function :  2 s   4.900
  Species C                   : Missing cutoff potential type.
  Defaulting to exp(1/x)/(1-x)^2 type cutoff potential.
  Species C : No 'logarithmic' tag. Using default grid for free atom:
  | Default logarithmic grid data [bohr] : 0.1000E-03 0.1000E+03 0.1012E+01
  Species C : On-site basis accuracy parameter (for Gram-Schmidt orthonormalisation) not specified.
  Using default value basis_acc =  0.1000000E-03.
  Species C                   : Using default innermost maximum threshold i_radial=  2 for radial functions.
  Species C                   : Default cutoff onset for free atom density etc. : 0.35000000E+01 AA.
  Species C                   : Basic radial grid will be enhanced according to radial_multiplier =   1, to contain    34 grid points.
 
  Reading configuration options for species N                   .
  | Found nuclear charge :   7.0000
  | Found atomic mass :    14.0067000000000      amu
  | Found l_max for Hartree potential  :   4
  | Found cutoff potl. onset [A], width [A], scale factor :    3.50000    1.50000    1.00000
  | Threshold for basis-dependent cutoff potential is   0.100000E-03
  | Found data for basic radial integration grid :    35 points, outermost radius =    5.000 A
  | Found multiplier for basic radial grid :   1
  | Found angular grid specification: user-specified.
  | Specified grid contains     5 separate shells.
  | Check grid settings after all constraints further below.
  | Found free-atom valence shell :  2 s   2.000
  | Found free-atom valence shell :  2 p   3.000
  | No ionic wave fns used. Skipping ion_occ.
  | No ionic wave fns used. Skipping ion_occ.
  | Found hydrogenic basis function :  2 p   1.800
  | Found hydrogenic basis function :  3 d   6.800
  | Found hydrogenic basis function :  3 s   5.800
  Species N                   : Missing cutoff potential type.
  Defaulting to exp(1/x)/(1-x)^2 type cutoff potential.
  Species N : No 'logarithmic' tag. Using default grid for free atom:
  | Default logarithmic grid data [bohr] : 0.1000E-03 0.1000E+03 0.1012E+01
  Species N : On-site basis accuracy parameter (for Gram-Schmidt orthonormalisation) not specified.
  Using default value basis_acc =  0.1000000E-03.
  Species N                   : Using default innermost maximum threshold i_radial=  2 for radial functions.
  Species N                   : Default cutoff onset for free atom density etc. : 0.35000000E+01 AA.
  Species N                   : Basic radial grid will be enhanced according to radial_multiplier =   1, to contain    35 grid points.
 
  Reading configuration options for species O                   .
  | Found nuclear charge :   8.0000
  | Found atomic mass :    15.9994000000000      amu
  | Found l_max for Hartree potential  :   4
  | Found cutoff potl. onset [A], width [A], scale factor :    3.50000    1.50000    1.00000
  | Threshold for basis-dependent cutoff potential is   0.100000E-03
  | Found data for basic radial integration grid :    36 points, outermost radius =    5.000 A
  | Found multiplier for basic radial grid :   1
  | Found angular grid specification: user-specified.
  | Specified grid contains     5 separate shells.
  | Check grid settings after all constraints further below.
  | Found free-atom valence shell :  2 s   2.000
  | Found free-atom valence shell :  2 p   4.000
  | No ionic wave fns used. Skipping ion_occ.
  | No ionic wave fns used. Skipping ion_occ.
  | Found hydrogenic basis function :  2 p   1.800
  | Found hydrogenic basis function :  3 d   7.600
  | Found hydrogenic basis function :  3 s   6.400
  Species O                   : Missing cutoff potential type.
  Defaulting to exp(1/x)/(1-x)^2 type cutoff potential.
  Species O : No 'logarithmic' tag. Using default grid for free atom:
  | Default logarithmic grid data [bohr] : 0.1000E-03 0.1000E+03 0.1012E+01
  Species O : On-site basis accuracy parameter (for Gram-Schmidt orthonormalisation) not specified.
  Using default value basis_acc =  0.1000000E-03.
  Species O                   : Using default innermost maximum threshold i_radial=  2 for radial functions.
  Species O                   : Default cutoff onset for free atom density etc. : 0.35000000E+01 AA.
  Species O                   : Basic radial grid will be enhanced according to radial_multiplier =   1, to contain    36 grid points.
 
  Finished reading input file 'control.in'. Consistency checks are next.
 
  MPI_IN_PLACE appears to work with this MPI implementation.
  | Keeping use_mpi_in_place .true. (see manual).
  Target number of points in a grid batch is not set. Defaulting to  100
  Method for grid partitioning is not set. Defaulting to parallel hash+maxmin partitioning.
  Batch size limit is not set. Defaulting to    200
  By default, will store active basis functions for each batch.
  If in need of memory, prune_basis_once .false. can be used to disable this option.
  communication_type for Hartree potential was not specified.
  Defaulting to calc_hartree .
  Pulay mixer: Number of initial linear mixing iterations not set.
  Defaulting to    0 iterations.
  Work space size for distributed Hartree potential not set.
  Defaulting to   0.200000E+03 MB.
  Algorithm-dependent basis array size parameters:
  | n_max_pulay                         :       10
  Presetting      1001 iterations before the initial mixing cycle
  is restarted anyway using the sc_init_iter criterion / keyword.
  Presetting a factor      1.000 between actual scf density residual
  and density convergence criterion sc_accuracy_rho below which sc_init_iter
  takes no effect.
  Geometry relaxation not requested: no relaxation will be performed.
  Handling of forces: Unphysical translation and rotation will be removed from forces.
  No accuracy limit for integral partition fn. given. Defaulting to  0.1000E-14.
  No threshold value for u(r) in integrations given. Defaulting to  0.1000E-05.
  No accuracy for occupation numbers given. Defaulting to  0.1000E-12.
  No threshold value for occupation numbers given. Defaulting to  0.0000E+00.
  No accuracy for fermi level given. Defaulting to  0.1000E-19.
  Maximum # of iterations to find E_F not set. Defaulting to  200.
  Preferred method for the eigenvalue solver ('KS_method') not specified in 'control.in'.
  Defaulting to serial version, 'lapack_fast'.
  Will not use alltoall communication since running on < 1024 CPUs.
  Threshold for basis singularities not set.
  Default threshold for basis singularities:  0.1000E-04
  partition_type (choice of integration weights) for integrals was not specified.
  | Using a version of the partition function of Stratmann and coworkers ('stratmann_smoother').
  | At each grid point, the set of atoms used to build the partition table is smoothly restricted to
  | only those atoms whose free-atom density would be non-zero at that grid point.
  Partitioning for Hartree potential was not defined. Using partition_type for integrals.
  | Adjusted default value of keyword multip_moments_threshold to:       0.10000000E-11
  | This value may affect high angular momentum components of the Hartree potential in periodic systems.
  No q(lm)/r^(l+1) cutoff set for long-range Hartree potential.
  | Using default value of  0.100000E-09 .
  | Verify using the multipole_threshold keyword.
  Defaulting to new monopole extrapolation.
  Density update method: automatic selection selected.
------------------------------------------------------------


------------------------------------------------------------
          Reading geometry description geometry.in.
------------------------------------------------------------
  Input structure read successfully.
  The structure contains       13 atoms,  and a total of         48.000 electrons.

  Input geometry:
  | No unit cell requested.
  | Atomic structure:
  |       Atom                x [A]            y [A]            z [A]
  |    1: Species C             0.00000000        0.00000000        0.00000000
  |    2: Species H             1.09300000        0.00000000        0.00000000
  |    3: Species N            -0.47961000        0.00000000       -1.41207000
  |    4: Species H             0.29911000        0.25183000       -2.02200000
  |    5: Species H            -0.81948000       -0.93157000       -1.64183000
  |    6: Species C            -0.49584000        1.26211000        0.72868000
  |    7: Species H            -1.58789000        1.28919000        0.74431000
  |    8: Species H            -0.13407000        1.27425000        1.75947000
  |    9: Species H            -0.13407000        2.16087000        0.22380000
  |   10: Species C            -0.39425000       -1.28861000        0.74398000
  |   11: Species O            -0.10189000       -1.56493000        1.88303000
  |   12: Species O            -1.10210000       -2.13717000        0.06896000
  |   13: Species H            -0.44120000       -2.36855000       -0.60532000
  |

  | The smallest distance between any two atoms is         0.97210032 AA.
  |
  | The first atom of this pair is atom number                     12 .
  | The second atom of this pair is atom number                    13 .

  Number of empty states per atom not set in control.in - providing a guess from actual geometry.
  | Total number of empty states used during s.c.f. cycle:       29
  If you use a very high smearing, use empty_states (per atom!) in control.in to increase this value.

  Structure-dependent array size parameters: 
  | Maximum number of distinct radial functions  :       21
  | Maximum number of basis functions            :      119
  | Number of Kohn-Sham states (occupied + empty):       53
------------------------------------------------------------

------------------------------------------------------------
          Preparing all fixed parts of the calculation.
------------------------------------------------------------
  Determining machine precision:
    2.225073858507201E-308
  Setting up grids for atomic and cluster calculations.

  Creating wave function, potential, and density for free atoms.

  Species: H

  List of occupied orbitals and eigenvalues:
    n    l              occ      energy [Ha]    energy [eV]
    1    0           1.0000        -0.237589        -6.4651


  Species: C

  List of occupied orbitals and eigenvalues:
    n    l              occ      energy [Ha]    energy [eV]
    1    0           2.0000       -10.038835      -273.1706
    2    0           2.0000        -0.502696       -13.6791
    2    1           2.0000        -0.191971        -5.2238


  Species: N

  List of occupied orbitals and eigenvalues:
    n    l              occ      energy [Ha]    energy [eV]
    1    0           2.0000       -14.128000      -384.4424
    2    0           2.0000        -0.681077       -18.5330
    2    1           3.0000        -0.259788        -7.0692


  Species: O

  List of occupied orbitals and eigenvalues:
    n    l              occ      energy [Ha]    energy [eV]
    1    0           2.0000       -18.898188      -514.2459
    2    0           2.0000        -0.878505       -23.9053
    2    1           4.0000        -0.331779        -9.0282

  Creating fixed part of basis set: Ionic, confined, hydrogenic.
 
  H                    hydrogenic:
 
  List of hydrogenic basis orbitals: 
    n    l      effective z      eigenvalue [eV]  inner max. [A]     outer max. [A]     outer radius [A]   
    2    0         2.100000       -14.9728           0.193243           1.317208           4.583499
    2    1         3.500000       -41.6669           0.602369           0.602369           3.723403
 
 
  C                    hydrogenic:
 
  List of hydrogenic basis orbitals: 
    n    l      effective z      eigenvalue [eV]  inner max. [A]     outer max. [A]     outer radius [A]   
    2    1         1.700000        -9.7616           1.230570           1.230570           4.607917
    3    2         6.000000       -54.4224           0.792453           0.792453           3.883070
    2    0         4.900000       -81.6679           0.082559           0.562749           3.078220
 
 
  N                    hydrogenic:
 
  List of hydrogenic basis orbitals: 
    n    l      effective z      eigenvalue [eV]  inner max. [A]     outer max. [A]     outer radius [A]   
    2    1         1.800000       -10.9749           1.177451           1.177451           4.573712
    3    2         6.800000       -69.9026           0.704619           0.704619           3.538137
    3    0         5.800000       -50.8545           0.067388           1.191934           4.250239
 
 
  O                    hydrogenic:
 
  List of hydrogenic basis orbitals: 
    n    l      effective z      eigenvalue [eV]  inner max. [A]     outer max. [A]     outer radius [A]   
    2    1         1.800000       -10.9749           1.164242           1.164242           4.578029
    3    2         7.600000       -87.3180           0.624125           0.624125           3.251020
    3    0         6.400000       -61.9207           0.061167           1.081902           4.001998
 

  Adding cutoff potential to free-atom effective potential.
  Creating atomic-like basis functions for current effective potential.

  Species H                   :

  List of atomic basis orbitals and eigenvalues:
    n    l      energy [Ha]    energy [eV]    outer radius [A]
    1    0        -0.237589        -6.4651       4.527807


  Species C                   :

  List of atomic basis orbitals and eigenvalues:
    n    l      energy [Ha]    energy [eV]    outer radius [A]
    1    0       -10.038835      -273.1706       1.934409
    2    0        -0.502696       -13.6791       4.496620
    2    1        -0.191971        -5.2238       4.551928


  Species N                   :

  List of atomic basis orbitals and eigenvalues:
    n    l      energy [Ha]    energy [eV]    outer radius [A]
    1    0       -14.128000      -384.4424       1.637919
    2    0        -0.681077       -18.5330       4.463241
    2    1        -0.259788        -7.0692       4.518138


  Species O                   :

  List of atomic basis orbitals and eigenvalues:
    n    l      energy [Ha]    energy [eV]    outer radius [A]
    1    0       -18.898188      -514.2459       1.415765
    2    0        -0.878505       -23.9053       4.413171
    2    1        -0.331779        -9.0282       4.522403

  Assembling full basis from fixed parts.
  | Species H :   atomic orbital   1 s accepted.
  | Species H :    hydro orbital   2 s accepted.
  | Species H :    hydro orbital   2 p accepted.
  | Species C :   atomic orbital   1 s accepted.
  | Species C :    hydro orbital   2 s accepted.
  | Species C :   atomic orbital   2 s accepted.
  | Species C :   atomic orbital   2 p accepted.
  | Species C :    hydro orbital   2 p accepted.
  | Species C :    hydro orbital   3 d accepted.
  | Species N :   atomic orbital   1 s accepted.
  | Species N :    hydro orbital   3 s accepted.
  | Species N :   atomic orbital   2 s accepted.
  | Species N :   atomic orbital   2 p accepted.
  | Species N :    hydro orbital   2 p accepted.
  | Species N :    hydro orbital   3 d accepted.
  | Species O :   atomic orbital   1 s accepted.
  | Species O :    hydro orbital   3 s accepted.
  | Species O :   atomic orbital   2 s accepted.
  | Species O :   atomic orbital   2 p accepted.
  | Species O :    hydro orbital   2 p accepted.
  | Species O :    hydro orbital   3 d accepted.
 
  Basis size parameters after reduction:
  | Total number of radial functions:       21
  | Total number of basis functions :      119
 
  Per-task memory consumption for arrays in subroutine allocate_ext:
  |           5.250512MB.
  Testing on-site integration grid accuracy.
  |  Species  Function  <phi|h_atom|phi> (log., in eV)  <phi|h_atom|phi> (rad., in eV)
           1        1                 -6.4663192853                 -6.4651273558
           1        2                 13.7111246313                 13.7170609718
           1        3                 25.2673269279                 25.2674696378
           2        4               -273.1705927641               -273.1705631568
           2        5                -10.7109323383                -10.7107120029
           2        6                 17.4381822266                 17.4352413244
           2        7                 -5.2255326521                 -5.2270484734
           2        8                  8.6835629259                  8.6603288385
           2        9                 27.4952418996                 27.4953360207
           3       10               -384.4424306495               -384.4423701208
           3       11                 12.5842251816                 12.5842222903
           3       12                -15.7264628251                -15.7264433455
           3       13                 -7.0696854293                 -7.0701769954
           3       14                  8.8090390882                  8.7901077751
           3       15                 35.9586762123                 35.9588528632
           4       16               -514.2458688638               -514.2457643834
           4       17                 15.1795651126                 15.1795290741
           4       18                -21.5359799773                -21.5360846186
           4       19                 -9.0283069236                 -9.0284644067
           4       20                  8.3027758564                  8.2834874195
           4       21                 45.8339351984                 45.8338762259

  Preparing densities etc. for the partition functions (integrals / Hartree potential).

  Preparations completed.
  max(cpu_time)          :      0.148 s.
  Wall clock time (cpu1) :      0.149 s.
------------------------------------------------------------

------------------------------------------------------------
          Begin self-consistency loop: Initialization.

          Date     :  20200710, Time     :  152615.443
------------------------------------------------------------

  Initializing index lists of integration centers etc. from given atomic structure:
  | Number of centers in hartree potential         :        13
  | Number of centers in hartree multipole         :        13
  | Number of centers in electron density summation:        13
  | Number of centers in basis integrals           :        13
  | Number of centers in integrals                 :        13
  | Number of centers in hamiltonian               :        13
  Partitioning the integration grid into batches with parallel hashing+maxmin method.
  | Number of batches:      956
  | Maximal batch size:     138
  | Minimal batch size:      66
  | Average batch size:      72.851
  | Standard deviation of batch sizes:      17.512

  Integration load balanced across     1 MPI tasks.
  Work distribution over tasks is as follows:
  Task     0 has      69646 integration points.
  Initializing partition tables, free-atom densities, potentials, etc. across the integration grid (initialize_grid_storage).
  | initialize_grid_storage: Actual outermost partition radius vs. multipole_radius_free
  | (-- VB: in principle, multipole_radius_free should be larger, hence this output)
  | Species        1: Confinement radius =              4.999999999999999 AA, multipole_radius_free =              5.054417573612229 AA.
  | Species        1: outer_partition_radius set to              5.054417573612229 AA .
  | Species        2: Confinement radius =              4.999999999999999 AA, multipole_radius_free =              5.019602836301480 AA.
  | Species        2: outer_partition_radius set to              5.019602836301480 AA .
  | Species        3: Confinement radius =              4.999999999999999 AA, multipole_radius_free =              5.043624274424571 AA.
  | Species        3: outer_partition_radius set to              5.043624274424571 AA .
  | Species        4: Confinement radius =              4.999999999999999 AA, multipole_radius_free =              5.048384829883283 AA.
  | Species        4: outer_partition_radius set to              5.048384829883283 AA .
  | Original list of interatomic distances with          13 x         13 entries is created.
  | Net number of integration points:    69646
  | of which are non-zero points    :    59495
  Renormalizing the initial density to the exact electron count on the 3D integration grid.
  | Initial density: Formal number of electrons (from input files) :      48.0000000000
  | Integrated number of electrons on 3D grid     :      47.9999879131
  | Charge integration error                      :      -0.0000120869
  | Normalization factor for density and gradient :       1.0000002518
  Obtaining max. number of non-zero basis functions in each batch (get_n_compute_maxes).
  | Maximal number of non-zero basis functions:      119 in task     0
  Selecting the method for density update.
  Loop over occupied states selected for charge density update.
  Allocating        0.050 MB for KS_eigenvector
  Integrating Hamiltonian matrix: batch-based integration.
  Time summed over all CPUs for integration: real work        0.494 s, elapsed        0.494 s
  Integrating overlap matrix.
  Time summed over all CPUs for integration: real work        0.211 s, elapsed        0.211 s

  Updating Kohn-Sham eigenvalues and eigenvectors using ELSI and the ELPA eigensolver.
  Overlap matrix is nonsingular
  | Lowest eigenvalue of overlap  :  0.46E-02
  | Highest eigenvalue of overlap :  0.62E+01
  Finished singularity check of overlap matrix
  | Time :     0.002 s
  Finished Cholesky decomposition
  | Time :     0.000 s
  Finished transformation to standard eigenproblem
  | Time :     0.000 s
  Starting LAPACK eigensolver
  Finished solving standard eigenproblem
  | Time :     0.002 s
  Finished back-transformation of eigenvectors
  | Time :     0.000 s

  Obtaining occupation numbers and chemical potential using ELSI.
  | Chemical potential (Fermi level):    -9.35169976eV
  Writing Kohn-Sham eigenvalues.

  State    Occupation    Eigenvalue [Ha]    Eigenvalue [eV]
      1       2.00000         -19.008396         -517.24476
      2       2.00000         -18.977193         -516.39569
      3       2.00000         -14.246008         -387.65359
      4       2.00000         -10.166587         -276.64690
      5       2.00000         -10.141464         -275.96328
      6       2.00000         -10.132142         -275.70961
      7       2.00000          -1.183582          -32.20691
      8       2.00000          -1.099903          -29.92987
      9       2.00000          -0.990928          -26.96452
     10       2.00000          -0.861865          -23.45254
     11       2.00000          -0.751340          -20.44499
     12       2.00000          -0.682008          -18.55837
     13       2.00000          -0.641649          -17.46015
     14       2.00000          -0.608697          -16.56350
     15       2.00000          -0.575615          -15.66327
     16       2.00000          -0.568092          -15.45856
     17       2.00000          -0.556211          -15.13526
     18       2.00000          -0.527508          -14.35422
     19       2.00000          -0.518229          -14.10173
     20       2.00000          -0.503496          -13.70082
     21       2.00000          -0.462256          -12.57864
     22       2.00000          -0.427729          -11.63911
     23       2.00000          -0.403586          -10.98213
     24       2.00000          -0.388854          -10.58126
     25       0.00000          -0.160211           -4.35958
     26       0.00000          -0.071096           -1.93461
     27       0.00000          -0.030057           -0.81790
     28       0.00000          -0.025970           -0.70668
     29       0.00000           0.002583            0.07029
     30       0.00000           0.011012            0.29964
     31       0.00000           0.021324            0.58026
     32       0.00000           0.031216            0.84943
     33       0.00000           0.054590            1.48546
     34       0.00000           0.069442            1.88961
     35       0.00000           0.092593            2.51959
     36       0.00000           0.131397            3.57550
     37       0.00000           0.155003            4.21786
     38       0.00000           0.198528            5.40222
     39       0.00000           0.217226            5.91102
     40       0.00000           0.225216            6.12844
     41       0.00000           0.258545            7.03538
     42       0.00000           0.270352            7.35665
     43       0.00000           0.288324            7.84570
     44       0.00000           0.319131            8.68400
     45       0.00000           0.328526            8.93965
     46       0.00000           0.347780            9.46357
     47       0.00000           0.365486            9.94538
     48       0.00000           0.404036           10.99437
     49       0.00000           0.421796           11.47764
     50       0.00000           0.482994           13.14293
     51       0.00000           0.513780           13.98067
     52       0.00000           0.533139           14.50744
     53       0.00000           0.574269           15.62665

  Highest occupied state (VBM) at    -10.58125963 eV
  | Occupation number:      2.00000000

  Lowest unoccupied state (CBM) at    -4.35957559 eV
  | Occupation number:      0.00000000

  Overall HOMO-LUMO gap:      6.22168404 eV.
  Calculating total energy contributions from superposition of free atom densities.

  Total energy components:
  | Sum of eigenvalues            :        -188.84667090 Ha       -5138.77937330 eV
  | XC energy correction          :         -41.79576305 Ha       -1137.32057893 eV
  | XC potential correction       :          53.72980260 Ha        1462.06231762 eV
  | Free-atom electrostatic energy:        -146.84094451 Ha       -3995.74540144 eV
  | Hartree energy correction     :           0.00000000 Ha           0.00000000 eV
  | vdW energy correction         :           0.00000000 Ha           0.00000000 eV
  | Entropy correction            :           0.00000000 Ha           0.00000000 eV
  | ---------------------------
  | Total energy                  :        -323.75357586 Ha       -8809.78303604 eV
  | Total energy, T -> 0          :        -323.75357586 Ha       -8809.78303604 eV  <-- do not rely on this value for anything but (periodic) metals
  | Electronic free energy        :        -323.75357586 Ha       -8809.78303604 eV

  Derived energy quantities:
  | Kinetic energy                :         320.51636017 Ha        8721.69391526 eV
  | Electrostatic energy          :        -602.47417298 Ha      -16394.15637237 eV
  | Energy correction for multipole
  | error in Hartree potential    :           0.00000000 Ha           0.00000000 eV
  | Sum of eigenvalues per atom                           :        -395.29072102 eV
  | Total energy (T->0) per atom                          :        -677.67561816 eV  <-- do not rely on this value for anything but (periodic) metals
  | Electronic free energy per atom                       :        -677.67561816 eV
  Initialize hartree_potential_storage
  Max. number of atoms included in rho_multipole:           13

  End scf initialization - timings             :  max(cpu_time)    wall_clock(cpu1)
  | Time for scf. initialization               :        1.146 s           1.149 s
  | Boundary condition initialization          :        0.000 s           0.000 s
  | Integration                                :        0.704 s           0.705 s
  | Solution of K.-S. eqns.                    :        0.004 s           0.004 s
  | Grid partitioning                          :        0.111 s           0.112 s
  | Preloading free-atom quantities on grid    :        0.002 s           0.002 s
  | Free-atom superposition energy             :        0.085 s           0.085 s
  | Total energy evaluation                    :        0.000 s           0.000 s

  Partial memory accounting:
  | Current value for overall tracked memory usage on task 0  :           0.165 MB
  | Peak value for overall tracked memory usage on task 0     :           0.676 MB after allocating wave
  | Largest tracked array allocation on task 0 so far         :           0.131 MB  when allocating H_times_psi
  Note:  These values currently only include a subset of arrays which are explicitly tracked.
  The "true" memory usage will be greater.
------------------------------------------------------------

------------------------------------------------------------
          Begin self-consistency iteration #    1

  Date     :  20200710, Time     :  152616.592
------------------------------------------------------------
  Evaluating new KS density.
  Integration grid: deviation in total charge (<rho> - N_e) =   4.263256E-14
  Pulay mixing of updated and previous charge densities.

  Evaluating partitioned Hartree potential by multipole expansion.
  | Analytical far-field extrapolation by fixed multipoles:
  | Hartree multipole sum: apparent total charge =  -0.117844E-03
  Summing up the Hartree potential.
  Time summed over all CPUs for potential: real work        0.281 s, elapsed        0.281 s
  | RMS charge density error from multipole expansion :   0.592269E-02

  Integrating Hamiltonian matrix: batch-based integration.
  Time summed over all CPUs for integration: real work        0.494 s, elapsed        0.494 s

  Updating Kohn-Sham eigenvalues and eigenvectors using ELSI and the ELPA eigensolver.
  Finished Cholesky decomposition
  | Time :     0.000 s
  Finished transformation to standard eigenproblem
  | Time :     0.000 s
  Starting LAPACK eigensolver
  Finished solving standard eigenproblem
  | Time :     0.001 s
  Finished back-transformation of eigenvectors
  | Time :     0.000 s

  Obtaining occupation numbers and chemical potential using ELSI.
  | Chemical potential (Fermi level):    -8.42245920eV
  Writing Kohn-Sham eigenvalues.

  State    Occupation    Eigenvalue [Ha]    Eigenvalue [eV]
      1       2.00000         -18.904171         -514.40866
      2       2.00000         -18.838277         -512.61559
      3       2.00000         -14.100035         -383.68147
      4       2.00000         -10.119311         -275.36045
      5       2.00000         -10.064685         -273.87402
      6       2.00000         -10.027837         -272.87132
      7       2.00000          -1.136636          -30.92944
      8       2.00000          -1.038074          -28.24742
      9       2.00000          -0.924524          -25.15759
     10       2.00000          -0.795697          -21.65202
     11       2.00000          -0.699318          -19.02940
     12       2.00000          -0.641054          -17.44398
     13       2.00000          -0.589209          -16.03319
     14       2.00000          -0.548900          -14.93634
     15       2.00000          -0.525860          -14.30937
     16       2.00000          -0.505488          -13.75502
     17       2.00000          -0.494402          -13.45336
     18       2.00000          -0.465501          -12.66693
     19       2.00000          -0.455408          -12.39229
     20       2.00000          -0.442651          -12.04514
     21       2.00000          -0.404079          -10.99556
     22       2.00000          -0.373177          -10.15467
     23       2.00000          -0.333952           -9.08730
     24       2.00000          -0.315666           -8.58972
     25       0.00000          -0.125547           -3.41630
     26       0.00000          -0.054018           -1.46990
     27       0.00000          -0.006585           -0.17918
     28       0.00000           0.015254            0.41508
     29       0.00000           0.033106            0.90086
     30       0.00000           0.051169            1.39239
     31       0.00000           0.061138            1.66365
     32       0.00000           0.074446            2.02578
     33       0.00000           0.093757            2.55126
     34       0.00000           0.103899            2.82725
     35       0.00000           0.126843            3.45157
     36       0.00000           0.159346            4.33604
     37       0.00000           0.177295            4.82444
     38       0.00000           0.226651            6.16748
     39       0.00000           0.255431            6.95063
     40       0.00000           0.257371            7.00343
     41       0.00000           0.296308            8.06296
     42       0.00000           0.305658            8.31737
     43       0.00000           0.319365            8.69035
     44       0.00000           0.356277            9.69478
     45       0.00000           0.363437            9.88963
     46       0.00000           0.382826           10.41722
     47       0.00000           0.410040           11.15776
     48       0.00000           0.441424           12.01177
     49       0.00000           0.456731           12.42829
     50       0.00000           0.517195           14.07359
     51       0.00000           0.552763           15.04146
     52       0.00000           0.565300           15.38260
     53       0.00000           0.604971           16.46211

  Highest occupied state (VBM) at     -8.58971759 eV
  | Occupation number:      2.00000000

  Lowest unoccupied state (CBM) at    -3.41629652 eV
  | Occupation number:      0.00000000

  Overall HOMO-LUMO gap:      5.17342107 eV.

  Total energy components:
  | Sum of eigenvalues            :        -185.48782436 Ha       -5047.38050863 eV
  | XC energy correction          :         -42.12280690 Ha       -1146.21989473 eV
  | XC potential correction       :          54.15510908 Ha        1473.63549578 eV
  | Free-atom electrostatic energy:        -146.84094451 Ha       -3995.74540144 eV
  | Hartree energy correction     :          -3.27203719 Ha         -89.03666206 eV
  | vdW energy correction         :           0.00000000 Ha           0.00000000 eV
  | Entropy correction            :          -0.00000000 Ha          -0.00000000 eV
  | ---------------------------
  | Total energy                  :        -323.56850388 Ha       -8804.74697109 eV
  | Total energy, T -> 0          :        -323.56850388 Ha       -8804.74697109 eV  <-- do not rely on this value for anything but (periodic) metals
  | Electronic free energy        :        -323.56850388 Ha       -8804.74697109 eV

  Derived energy quantities:
  | Kinetic energy                :         322.30494269 Ha        8770.36372181 eV
  | Electrostatic energy          :        -603.75063967 Ha      -16428.89079817 eV
  | Energy correction for multipole
  | error in Hartree potential    :           0.01210960 Ha           0.32951910 eV
  | Sum of eigenvalues per atom                           :        -388.26003913 eV
  | Total energy (T->0) per atom                          :        -677.28822855 eV  <-- do not rely on this value for anything but (periodic) metals
  | Electronic free energy per atom                       :        -677.28822855 eV

  Self-consistency convergence accuracy:
  | Change of charge density      :  0.5864E+00
  | Change of sum of eigenvalues  :  0.9140E+02 eV
  | Change of total energy        :  0.5036E+01 eV

  End self-consistency iteration #     1       :  max(cpu_time)    wall_clock(cpu1)
  | Time for this iteration                    :        1.185 s           1.188 s
  | Charge density update                      :        0.392 s           0.393 s
  | Density mixing                             :        0.005 s           0.006 s
  | Hartree multipole update                   :        0.009 s           0.009 s
  | Hartree multipole summation                :        0.282 s           0.282 s
  | Integration                                :        0.493 s           0.495 s
  | Solution of K.-S. eqns.                    :        0.002 s           0.002 s
  | Total energy evaluation                    :        0.000 s           0.001 s

  Partial memory accounting:
  | Current value for overall tracked memory usage on task 0  :           0.165 MB
  | Peak value for overall tracked memory usage on task 0     :           0.691 MB after allocating gradient_basis_wave
  | Largest tracked array allocation on task 0 so far         :           0.394 MB  when allocating gradient_basis_wave
  Note:  These values currently only include a subset of arrays which are explicitly tracked.
  The "true" memory usage will be greater.
------------------------------------------------------------

------------------------------------------------------------
          Begin self-consistency iteration #    2

  Date     :  20200710, Time     :  152617.780
------------------------------------------------------------
  Evaluating new KS density.
  Integration grid: deviation in total charge (<rho> - N_e) =   5.684342E-14
  Pulay mixing of updated and previous charge densities.

  Evaluating partitioned Hartree potential by multipole expansion.
  | Analytical far-field extrapolation by fixed multipoles:
  | Hartree multipole sum: apparent total charge =  -0.250180E-03
  Summing up the Hartree potential.
  Time summed over all CPUs for potential: real work        0.281 s, elapsed        0.281 s
  | RMS charge density error from multipole expansion :   0.139463E-01

  Integrating Hamiltonian matrix: batch-based integration.
  Time summed over all CPUs for integration: real work        0.493 s, elapsed        0.493 s

  Updating Kohn-Sham eigenvalues and eigenvectors using ELSI and the ELPA eigensolver.
  Finished Cholesky decomposition
  | Time :     0.000 s
  Finished transformation to standard eigenproblem
  | Time :     0.000 s
  Starting LAPACK eigensolver
  Finished solving standard eigenproblem
  | Time :     0.002 s
  Finished back-transformation of eigenvectors
  | Time :     0.000 s

  Obtaining occupation numbers and chemical potential using ELSI.
  | Chemical potential (Fermi level):    -3.23911542eV
  Highest occupied state (VBM) at     -6.65443674 eV
  | Occupation number:      2.00000000

  Lowest unoccupied state (CBM) at    -2.22745395 eV
  | Occupation number:      0.00000000

  Overall HOMO-LUMO gap:      4.42698279 eV.

  Checking to see if s.c.f. parameters should be adjusted.

  Total energy components:
  | Sum of eigenvalues            :        -182.01500072 Ha       -4952.88016940 eV
  | XC energy correction          :         -42.47444412 Ha       -1155.78843036 eV
  | XC potential correction       :          54.61080123 Ha        1486.03551026 eV
  | Free-atom electrostatic energy:        -146.84094451 Ha       -3995.74540144 eV
  | Hartree energy correction     :          -6.77039671 Ha        -184.23186796 eV
  | vdW energy correction         :           0.00000000 Ha           0.00000000 eV
  | Entropy correction            :           0.00000000 Ha           0.00000000 eV
  | ---------------------------
  | Total energy                  :        -323.48998482 Ha       -8802.61035891 eV
  | Total energy, T -> 0          :        -323.48998482 Ha       -8802.61035891 eV  <-- do not rely on this value for anything but (periodic) metals
  | Electronic free energy        :        -323.48998482 Ha       -8802.61035891 eV

  Derived energy quantities:
  | Kinetic energy                :         323.59532782 Ha        8805.47688777 eV
  | Electrostatic energy          :        -604.61086853 Ha      -16452.29881632 eV
  | Energy correction for multipole
  | error in Hartree potential    :           0.02642049 Ha           0.71893803 eV
  | Sum of eigenvalues per atom                           :        -380.99078226 eV
  | Total energy (T->0) per atom                          :        -677.12387376 eV  <-- do not rely on this value for anything but (periodic) metals
  | Electronic free energy per atom                       :        -677.12387376 eV

  Self-consistency convergence accuracy:
  | Change of charge density      :  0.3666E+00
  | Change of sum of eigenvalues  :  0.9450E+02 eV
  | Change of total energy        :  0.2137E+01 eV

  End self-consistency iteration #     2       :  max(cpu_time)    wall_clock(cpu1)
  | Time for this iteration                    :        1.176 s           1.179 s
  | Charge density update                      :        0.386 s           0.387 s
  | Density mixing                             :        0.007 s           0.006 s
  | Hartree multipole update                   :        0.009 s           0.009 s
  | Hartree multipole summation                :        0.281 s           0.281 s
  | Integration                                :        0.492 s           0.493 s
  | Solution of K.-S. eqns.                    :        0.002 s           0.002 s
  | Total energy evaluation                    :        0.000 s           0.000 s

  Partial memory accounting:
  | Current value for overall tracked memory usage on task 0  :           0.166 MB
  | Peak value for overall tracked memory usage on task 0     :           0.691 MB after allocating gradient_basis_wave
  | Largest tracked array allocation on task 0 so far         :           0.394 MB  when allocating gradient_basis_wave
  Note:  These values currently only include a subset of arrays which are explicitly tracked.
  The "true" memory usage will be greater.
------------------------------------------------------------

------------------------------------------------------------
          Begin self-consistency iteration #    3

  Date     :  20200710, Time     :  152618.959
------------------------------------------------------------
  Evaluating new KS density.
  Integration grid: deviation in total charge (<rho> - N_e) =  -7.105427E-15
  Pulay mixing of updated and previous charge densities.

  Evaluating partitioned Hartree potential by multipole expansion.
  | Analytical far-field extrapolation by fixed multipoles:
  | Hartree multipole sum: apparent total charge =  -0.344072E-03
  Summing up the Hartree potential.
  Time summed over all CPUs for potential: real work        0.281 s, elapsed        0.281 s
  | RMS charge density error from multipole expansion :   0.220001E-01

  Integrating Hamiltonian matrix: batch-based integration.
  Time summed over all CPUs for integration: real work        0.493 s, elapsed        0.493 s

  Updating Kohn-Sham eigenvalues and eigenvectors using ELSI and the ELPA eigensolver.
  Finished Cholesky decomposition
  | Time :     0.000 s
  Finished transformation to standard eigenproblem
  | Time :     0.000 s
  Starting LAPACK eigensolver
  Finished solving standard eigenproblem
  | Time :     0.002 s
  Finished back-transformation of eigenvectors
  | Time :     0.000 s

  Obtaining occupation numbers and chemical potential using ELSI.
  | Chemical potential (Fermi level):    -2.73178273eV
  Highest occupied state (VBM) at     -5.99754663 eV
  | Occupation number:      2.00000000

  Lowest unoccupied state (CBM) at    -1.55337932 eV
  | Occupation number:      0.00000000

  Overall HOMO-LUMO gap:      4.44416731 eV.

  Total energy components:
  | Sum of eigenvalues            :        -180.68938102 Ha       -4916.80822212 eV
  | XC energy correction          :         -42.62978283 Ha       -1160.01541173 eV
  | XC potential correction       :          54.80890112 Ha        1491.42608248 eV
  | Free-atom electrostatic energy:        -146.84094451 Ha       -3995.74540144 eV
  | Hartree energy correction     :          -8.12535538 Ha        -221.10216950 eV
  | vdW energy correction         :           0.00000000 Ha           0.00000000 eV
  | Entropy correction            :           0.00000000 Ha           0.00000000 eV
  | ---------------------------
  | Total energy                  :        -323.47656262 Ha       -8802.24512230 eV
  | Total energy, T -> 0          :        -323.47656262 Ha       -8802.24512230 eV  <-- do not rely on this value for anything but (periodic) metals
  | Electronic free energy        :        -323.47656262 Ha       -8802.24512230 eV

  Derived energy quantities:
  | Kinetic energy                :         323.23139651 Ha        8795.57381298 eV
  | Electrostatic energy          :        -604.07817631 Ha      -16437.80352355 eV
  | Energy correction for multipole
  | error in Hartree potential    :           0.03744503 Ha           1.01893113 eV
  | Sum of eigenvalues per atom                           :        -378.21601709 eV
  | Total energy (T->0) per atom                          :        -677.09577864 eV  <-- do not rely on this value for anything but (periodic) metals
  | Electronic free energy per atom                       :        -677.09577864 eV

  Self-consistency convergence accuracy:
  | Change of charge density      :  0.2074E+00
  | Change of sum of eigenvalues  :  0.3607E+02 eV
  | Change of total energy        :  0.3652E+00 eV

  End self-consistency iteration #     3       :  max(cpu_time)    wall_clock(cpu1)
  | Time for this iteration                    :        1.178 s           1.181 s
  | Charge density update                      :        0.385 s           0.386 s
  | Density mixing                             :        0.008 s           0.009 s
  | Hartree multipole update                   :        0.009 s           0.009 s
  | Hartree multipole summation                :        0.281 s           0.282 s
  | Integration                                :        0.492 s           0.493 s
  | Solution of K.-S. eqns.                    :        0.002 s           0.002 s
  | Total energy evaluation                    :        0.000 s           0.000 s

  Partial memory accounting:
  | Current value for overall tracked memory usage on task 0  :           0.166 MB
  | Peak value for overall tracked memory usage on task 0     :           0.692 MB after allocating gradient_basis_wave
  | Largest tracked array allocation on task 0 so far         :           0.394 MB  when allocating gradient_basis_wave
  Note:  These values currently only include a subset of arrays which are explicitly tracked.
  The "true" memory usage will be greater.
------------------------------------------------------------

------------------------------------------------------------
          Begin self-consistency iteration #    4

  Date     :  20200710, Time     :  152620.141
------------------------------------------------------------
  Evaluating new KS density.
  Integration grid: deviation in total charge (<rho> - N_e) =  -2.131628E-14
  Pulay mixing of updated and previous charge densities.

  Evaluating partitioned Hartree potential by multipole expansion.
  | Analytical far-field extrapolation by fixed multipoles:
  | Hartree multipole sum: apparent total charge =  -0.375381E-03
  Summing up the Hartree potential.
  Time summed over all CPUs for potential: real work        0.281 s, elapsed        0.281 s
  | RMS charge density error from multipole expansion :   0.254828E-01

  Integrating Hamiltonian matrix: batch-based integration.
  Time summed over all CPUs for integration: real work        0.493 s, elapsed        0.493 s

  Updating Kohn-Sham eigenvalues and eigenvectors using ELSI and the ELPA eigensolver.
  Finished Cholesky decomposition
  | Time :     0.000 s
  Finished transformation to standard eigenproblem
  | Time :     0.000 s
  Starting LAPACK eigensolver
  Finished solving standard eigenproblem
  | Time :     0.001 s
  Finished back-transformation of eigenvectors
  | Time :     0.000 s

  Obtaining occupation numbers and chemical potential using ELSI.
  | Chemical potential (Fermi level):    -2.63720238eV
  Highest occupied state (VBM) at     -5.82753919 eV
  | Occupation number:      2.00000000

  Lowest unoccupied state (CBM) at    -1.45641526 eV
  | Occupation number:      0.00000000

  Overall HOMO-LUMO gap:      4.37112393 eV.

  Total energy components:
  | Sum of eigenvalues            :        -180.54702993 Ha       -4912.93465178 eV
  | XC energy correction          :         -42.66843116 Ha       -1161.06708631 eV
  | XC potential correction       :          54.85747236 Ha        1492.74777315 eV
  | Free-atom electrostatic energy:        -146.84094451 Ha       -3995.74540144 eV
  | Hartree energy correction     :          -8.27661466 Ha        -225.21814381 eV
  | vdW energy correction         :           0.00000000 Ha           0.00000000 eV
  | Entropy correction            :           0.00000000 Ha           0.00000000 eV
  | ---------------------------
  | Total energy                  :        -323.47554790 Ha       -8802.21751021 eV
  | Total energy, T -> 0          :        -323.47554790 Ha       -8802.21751021 eV  <-- do not rely on this value for anything but (periodic) metals
  | Electronic free energy        :        -323.47554790 Ha       -8802.21751021 eV

  Derived energy quantities:
  | Kinetic energy                :         322.84954451 Ha        8785.18309138 eV
  | Electrostatic energy          :        -603.65666125 Ha      -16426.33351527 eV
  | Energy correction for multipole
  | error in Hartree potential    :           0.04169813 Ha           1.13466378 eV
  | Sum of eigenvalues per atom                           :        -377.91805014 eV
  | Total energy (T->0) per atom                          :        -677.09365463 eV  <-- do not rely on this value for anything but (periodic) metals
  | Electronic free energy per atom                       :        -677.09365463 eV

  Self-consistency convergence accuracy:
  | Change of charge density      :  0.6778E-01
  | Change of sum of eigenvalues  :  0.3874E+01 eV
  | Change of total energy        :  0.2761E-01 eV

  End self-consistency iteration #     4       :  max(cpu_time)    wall_clock(cpu1)
  | Time for this iteration                    :        1.178 s           1.181 s
  | Charge density update                      :        0.385 s           0.386 s
  | Density mixing                             :        0.009 s           0.009 s
  | Hartree multipole update                   :        0.009 s           0.009 s
  | Hartree multipole summation                :        0.281 s           0.281 s
  | Integration                                :        0.492 s           0.493 s
  | Solution of K.-S. eqns.                    :        0.002 s           0.003 s
  | Total energy evaluation                    :        0.000 s           0.000 s

  Partial memory accounting:
  | Current value for overall tracked memory usage on task 0  :           0.166 MB
  | Peak value for overall tracked memory usage on task 0     :           0.692 MB after allocating gradient_basis_wave
  | Largest tracked array allocation on task 0 so far         :           0.394 MB  when allocating gradient_basis_wave
  Note:  These values currently only include a subset of arrays which are explicitly tracked.
  The "true" memory usage will be greater.
------------------------------------------------------------

------------------------------------------------------------
          Begin self-consistency iteration #    5

  Date     :  20200710, Time     :  152621.322
------------------------------------------------------------
  Evaluating new KS density.
  Integration grid: deviation in total charge (<rho> - N_e) =  -5.684342E-14
  Pulay mixing of updated and previous charge densities.

  Evaluating partitioned Hartree potential by multipole expansion.
  | Analytical far-field extrapolation by fixed multipoles:
  | Hartree multipole sum: apparent total charge =  -0.369530E-03
  Summing up the Hartree potential.
  Time summed over all CPUs for potential: real work        0.281 s, elapsed        0.281 s
  | RMS charge density error from multipole expansion :   0.252760E-01

  Integrating Hamiltonian matrix: batch-based integration.
  Time summed over all CPUs for integration: real work        0.493 s, elapsed        0.493 s

  Updating Kohn-Sham eigenvalues and eigenvectors using ELSI and the ELPA eigensolver.
  Finished Cholesky decomposition
  | Time :     0.000 s
  Finished transformation to standard eigenproblem
  | Time :     0.000 s
  Starting LAPACK eigensolver
  Finished solving standard eigenproblem
  | Time :     0.002 s
  Finished back-transformation of eigenvectors
  | Time :     0.000 s

  Obtaining occupation numbers and chemical potential using ELSI.
  | Chemical potential (Fermi level):    -2.68305164eV
  Highest occupied state (VBM) at     -5.91948968 eV
  | Occupation number:      2.00000000

  Lowest unoccupied state (CBM) at    -1.55007167 eV
  | Occupation number:      0.00000000

  Overall HOMO-LUMO gap:      4.36941801 eV.

  Total energy components:
  | Sum of eigenvalues            :        -180.75143115 Ha       -4918.49669184 eV
  | XC energy correction          :         -42.64330380 Ha       -1160.38333609 eV
  | XC potential correction       :          54.82485945 Ha        1491.86033061 eV
  | Free-atom electrostatic energy:        -146.84094451 Ha       -3995.74540144 eV
  | Hartree energy correction     :          -8.06443415 Ha        -219.44441836 eV
  | vdW energy correction         :           0.00000000 Ha           0.00000000 eV
  | Entropy correction            :           0.00000000 Ha           0.00000000 eV
  | ---------------------------
  | Total energy                  :        -323.47525416 Ha       -8802.20951712 eV
  | Total energy, T -> 0          :        -323.47525416 Ha       -8802.20951712 eV  <-- do not rely on this value for anything but (periodic) metals
  | Electronic free energy        :        -323.47525416 Ha       -8802.20951712 eV

  Derived energy quantities:
  | Kinetic energy                :         322.72309815 Ha        8781.74231085 eV
  | Electrostatic energy          :        -603.55504851 Ha      -16423.56849187 eV
  | Energy correction for multipole
  | error in Hartree potential    :           0.04106409 Ha           1.11741069 eV
  | Sum of eigenvalues per atom                           :        -378.34589937 eV
  | Total energy (T->0) per atom                          :        -677.09303978 eV  <-- do not rely on this value for anything but (periodic) metals
  | Electronic free energy per atom                       :        -677.09303978 eV

  Self-consistency convergence accuracy:
  | Change of charge density      :  0.2106E-01
  | Change of sum of eigenvalues  : -0.5562E+01 eV
  | Change of total energy        :  0.7993E-02 eV

  End self-consistency iteration #     5       :  max(cpu_time)    wall_clock(cpu1)
  | Time for this iteration                    :        1.180 s           1.190 s
  | Charge density update                      :        0.385 s           0.391 s
  | Density mixing                             :        0.011 s           0.011 s
  | Hartree multipole update                   :        0.009 s           0.009 s
  | Hartree multipole summation                :        0.281 s           0.282 s
  | Integration                                :        0.492 s           0.493 s
  | Solution of K.-S. eqns.                    :        0.002 s           0.002 s
  | Total energy evaluation                    :        0.000 s           0.000 s

  Partial memory accounting:
  | Current value for overall tracked memory usage on task 0  :           0.166 MB
  | Peak value for overall tracked memory usage on task 0     :           0.692 MB after allocating gradient_basis_wave
  | Largest tracked array allocation on task 0 so far         :           0.394 MB  when allocating gradient_basis_wave
  Note:  These values currently only include a subset of arrays which are explicitly tracked.
  The "true" memory usage will be greater.
------------------------------------------------------------

------------------------------------------------------------
          Begin self-consistency iteration #    6

  Date     :  20200710, Time     :  152622.513
------------------------------------------------------------
  Evaluating new KS density.
  Integration grid: deviation in total charge (<rho> - N_e) =   9.237056E-14
  Pulay mixing of updated and previous charge densities.

  Evaluating partitioned Hartree potential by multipole expansion.
  | Analytical far-field extrapolation by fixed multipoles:
  | Hartree multipole sum: apparent total charge =  -0.373447E-03
  Summing up the Hartree potential.
  Time summed over all CPUs for potential: real work        0.282 s, elapsed        0.282 s
  | RMS charge density error from multipole expansion :   0.257435E-01

  Integrating Hamiltonian matrix: batch-based integration.
  Time summed over all CPUs for integration: real work        0.493 s, elapsed        0.493 s

  Updating Kohn-Sham eigenvalues and eigenvectors using ELSI and the ELPA eigensolver.
  Finished Cholesky decomposition
  | Time :     0.000 s
  Finished transformation to standard eigenproblem
  | Time :     0.000 s
  Starting LAPACK eigensolver
  Finished solving standard eigenproblem
  | Time :     0.001 s
  Finished back-transformation of eigenvectors
  | Time :     0.000 s

  Obtaining occupation numbers and chemical potential using ELSI.
  | Chemical potential (Fermi level):    -2.67027150eV
  Highest occupied state (VBM) at     -5.88250891 eV
  | Occupation number:      2.00000000

  Lowest unoccupied state (CBM) at    -1.55940369 eV
  | Occupation number:      0.00000000

  Overall HOMO-LUMO gap:      4.32310522 eV.

  Total energy components:
  | Sum of eigenvalues            :        -180.74118205 Ha       -4918.21779963 eV
  | XC energy correction          :         -42.64403158 Ha       -1160.40313987 eV
  | XC potential correction       :          54.82576452 Ha        1491.88495899 eV
  | Free-atom electrostatic energy:        -146.84094451 Ha       -3995.74540144 eV
  | Hartree energy correction     :          -8.07481236 Ha        -219.72682396 eV
  | vdW energy correction         :           0.00000000 Ha           0.00000000 eV
  | Entropy correction            :           0.00000000 Ha           0.00000000 eV
  | ---------------------------
  | Total energy                  :        -323.47520597 Ha       -8802.20820591 eV
  | Total energy, T -> 0          :        -323.47520597 Ha       -8802.20820591 eV  <-- do not rely on this value for anything but (periodic) metals
  | Electronic free energy        :        -323.47520597 Ha       -8802.20820591 eV

  Derived energy quantities:
  | Kinetic energy                :         322.64877039 Ha        8779.71974959 eV
  | Electrostatic energy          :        -603.47994479 Ha      -16421.52481563 eV
  | Energy correction for multipole
  | error in Hartree potential    :           0.04148584 Ha           1.12888723 eV
  | Sum of eigenvalues per atom                           :        -378.32444613 eV
  | Total energy (T->0) per atom                          :        -677.09293892 eV  <-- do not rely on this value for anything but (periodic) metals
  | Electronic free energy per atom                       :        -677.09293892 eV

  Self-consistency convergence accuracy:
  | Change of charge density      :  0.1095E-01
  | Change of sum of eigenvalues  :  0.2789E+00 eV
  | Change of total energy        :  0.1311E-02 eV

  End self-consistency iteration #     6       :  max(cpu_time)    wall_clock(cpu1)
  | Time for this iteration                    :        1.183 s           1.187 s
  | Charge density update                      :        0.386 s           0.387 s
  | Density mixing                             :        0.012 s           0.012 s
  | Hartree multipole update                   :        0.009 s           0.009 s
  | Hartree multipole summation                :        0.282 s           0.282 s
  | Integration                                :        0.492 s           0.494 s
  | Solution of K.-S. eqns.                    :        0.002 s           0.002 s
  | Total energy evaluation                    :        0.000 s           0.000 s

  Partial memory accounting:
  | Current value for overall tracked memory usage on task 0  :           0.166 MB
  | Peak value for overall tracked memory usage on task 0     :           0.692 MB after allocating gradient_basis_wave
  | Largest tracked array allocation on task 0 so far         :           0.394 MB  when allocating gradient_basis_wave
  Note:  These values currently only include a subset of arrays which are explicitly tracked.
  The "true" memory usage will be greater.
------------------------------------------------------------

------------------------------------------------------------
          Begin self-consistency iteration #    7

  Date     :  20200710, Time     :  152623.700
------------------------------------------------------------
  Evaluating new KS density.
  Integration grid: deviation in total charge (<rho> - N_e) =   2.842171E-14
  Pulay mixing of updated and previous charge densities.

  Evaluating partitioned Hartree potential by multipole expansion.
  | Analytical far-field extrapolation by fixed multipoles:
  | Hartree multipole sum: apparent total charge =  -0.374139E-03
  Summing up the Hartree potential.
  Time summed over all CPUs for potential: real work        0.281 s, elapsed        0.281 s
  | RMS charge density error from multipole expansion :   0.258500E-01

  Integrating Hamiltonian matrix: batch-based integration.
  Time summed over all CPUs for integration: real work        0.492 s, elapsed        0.492 s

  Updating Kohn-Sham eigenvalues and eigenvectors using ELSI and the ELPA eigensolver.
  Finished Cholesky decomposition
  | Time :     0.000 s
  Finished transformation to standard eigenproblem
  | Time :     0.000 s
  Starting LAPACK eigensolver
  Finished solving standard eigenproblem
  | Time :     0.001 s
  Finished back-transformation of eigenvectors
  | Time :     0.000 s

[...]
  |   Hirshfeld dipole moment :      0.05572389
  |   Hirshfeld second moments:      0.01825976      -0.03071361      -0.01646481
  |                                 -0.03071361      -0.02191812       0.00627428
  |                                 -0.01646481       0.00627428      -0.01568477
  ----------------------------------------------------------------------
  | Atom    12: O
  |   Hirshfeld charge        :     -0.14863364
  |   Free atom volume        :     23.61338643
  |   Hirshfeld volume        :     20.85102821
  |   Hirshfeld dipole vector :      0.02752020       0.03317733      -0.00812754
  |   Hirshfeld dipole moment :      0.04386518
  |   Hirshfeld second moments:      0.05737507      -0.02218101      -0.01613771
  |                                 -0.02218101       0.05312820       0.03561271
  |                                 -0.01613771       0.03561271       0.06990875
  ----------------------------------------------------------------------
  | Atom    13: H
  |   Hirshfeld charge        :      0.17669796
  |   Free atom volume        :      9.95071624
  |   Hirshfeld volume        :      6.18399055
  |   Hirshfeld dipole vector :      0.07558865      -0.04762582      -0.08007659
  |   Hirshfeld dipole moment :      0.11997551
  |   Hirshfeld second moments:      0.12093027      -0.00670837       0.00770524
  |                                 -0.00670837       0.10975652       0.01422684
  |                                  0.00770524       0.01422684       0.11015317
  ----------------------------------------------------------------------


  Total energy components:
  | Sum of eigenvalues            :        -180.73922074 Ha       -4918.16442965 eV
  | XC energy correction          :         -42.64102066 Ha       -1160.32120875 eV
  | XC potential correction       :          54.82194813 Ha        1491.78110970 eV
  | Free-atom electrostatic energy:        -146.84094451 Ha       -3995.74540144 eV
  | Hartree energy correction     :          -8.07594611 Ha        -219.75767491 eV
  | vdW energy correction         :          -0.00318355 Ha          -0.08662874 eV
  | Entropy correction            :           0.00000000 Ha           0.00000000 eV
  | ---------------------------
  | Total energy                  :        -323.47836744 Ha       -8802.29423379 eV
  | Total energy, T -> 0          :        -323.47836744 Ha       -8802.29423379 eV  <-- do not rely on this value for anything but (periodic) metals
  | Electronic free energy        :        -323.47836744 Ha       -8802.29423379 eV

  Derived energy quantities:
  | Kinetic energy                :         322.61282184 Ha        8778.74153984 eV
  | Electrostatic energy          :        -603.44698507 Ha      -16420.62793614 eV
  | Energy correction for multipole
  | error in Hartree potential    :           0.04152586 Ha           1.12997606 eV
  | Sum of eigenvalues per atom                           :        -378.32034074 eV
  | Total energy (T->0) per atom                          :        -677.09955645 eV  <-- do not rely on this value for anything but (periodic) metals
  | Electronic free energy per atom                       :        -677.09955645 eV

  atomic forces [eV/Ang]:
  -----------------------
  atom #    1
   Hellmann-Feynman              :  0.804015E+00  0.175319E+00  0.116030E+01
   Ionic forces                  :  0.000000E+00  0.000000E+00  0.000000E+00
   Multipole                     :  0.227246E+00  0.104702E+00 -0.291090E+00
   Pulay + GGA                   : -0.123452E+01 -0.504139E-01 -0.127153E+01
   Van der Waals                 :  0.208340E-02  0.352228E-02 -0.628588E-03
   ----------------------------------------------------------------
   Total forces(   1)            : -0.201179E+00  0.233129E+00 -0.402956E+00
  atom #    2
   Hellmann-Feynman              :  0.363827E+00  0.426832E-01  0.193675E+00
   Ionic forces                  :  0.000000E+00  0.000000E+00  0.000000E+00
   Multipole                     :  0.158534E+00  0.830921E-02 -0.636887E-02
   Pulay + GGA                   : -0.121625E+00  0.155296E-01  0.392679E-01
   Van der Waals                 :  0.712461E-02 -0.472231E-02 -0.415910E-02
   ----------------------------------------------------------------
   Total forces(   2)            :  0.407861E+00  0.617997E-01  0.222415E+00
  atom #    3
   Hellmann-Feynman              : -0.880930E+01  0.755024E+01  0.129910E+00
   Ionic forces                  :  0.000000E+00  0.000000E+00  0.000000E+00
   Multipole                     : -0.125586E+00  0.104683E+00 -0.112104E+01
   Pulay + GGA                   :  0.914254E+01 -0.751666E+01  0.148933E+01
   Van der Waals                 :  0.341342E-02 -0.161150E-02 -0.952460E-02
   ----------------------------------------------------------------
   Total forces(   3)            :  0.211066E+00  0.136647E+00  0.488675E+00
  atom #    4
   Hellmann-Feynman              :  0.356817E-01 -0.156107E+00 -0.162739E+00
   Ionic forces                  :  0.000000E+00  0.000000E+00  0.000000E+00
   Multipole                     :  0.346545E-01 -0.384447E-02 -0.101373E+00
   Pulay + GGA                   : -0.197737E+00  0.268734E-01  0.116176E+00
   Van der Waals                 : -0.383602E-02 -0.400555E-02  0.595741E-02
   ----------------------------------------------------------------
   Total forces(   4)            : -0.131237E+00 -0.137083E+00 -0.141978E+00
  atom #    5
   Hellmann-Feynman              :  0.179025E-01 -0.518133E-01 -0.372266E+00
   Ionic forces                  :  0.000000E+00  0.000000E+00  0.000000E+00
   Multipole                     : -0.327593E-01 -0.683779E-01 -0.853721E-01
   Pulay + GGA                   : -0.949556E-01  0.292818E+00  0.315359E-01
   Van der Waals                 : -0.243350E-02  0.356368E-02  0.167770E-02
   ----------------------------------------------------------------
   Total forces(   5)            : -0.112246E+00  0.176191E+00 -0.424425E+00
  atom #    6
   Hellmann-Feynman              : -0.162494E+00 -0.397214E+00  0.592848E+00
   Ionic forces                  :  0.000000E+00  0.000000E+00  0.000000E+00
   Multipole                     : -0.101434E+00  0.619175E+00  0.246037E+00
   Pulay + GGA                   :  0.375291E+00 -0.570341E+00 -0.641787E+00
   Van der Waals                 : -0.372738E-02  0.423667E-02 -0.370504E-02
   ----------------------------------------------------------------
   Total forces(   6)            :  0.107635E+00 -0.344144E+00  0.193394E+00
  atom #    7
   Hellmann-Feynman              : -0.192282E+00 -0.591002E-01 -0.686431E-01
   Ionic forces                  :  0.000000E+00  0.000000E+00  0.000000E+00
   Multipole                     : -0.121610E+00  0.498026E-01  0.257825E-01
   Pulay + GGA                   :  0.123638E+00  0.793541E-03 -0.266432E-01
   Van der Waals                 : -0.108121E-02  0.120302E-02  0.280456E-02
   ----------------------------------------------------------------
   Total forces(   7)            : -0.191335E+00 -0.730101E-02 -0.666992E-01
  atom #    8
   Hellmann-Feynman              :  0.106947E+00 -0.312480E-01  0.152269E+00
   Ionic forces                  :  0.000000E+00  0.000000E+00  0.000000E+00
   Multipole                     :  0.139068E-01  0.606191E-01  0.124547E+00
   Pulay + GGA                   : -0.425239E-01 -0.369612E-01 -0.840671E-01
   Van der Waals                 : -0.250478E-02  0.114855E-01  0.154735E-02
   ----------------------------------------------------------------
   Total forces(   8)            :  0.758252E-01  0.389542E-02  0.194296E+00
  atom #    9
   Hellmann-Feynman              :  0.102402E+00  0.269989E-01 -0.189964E+00
   Ionic forces                  :  0.000000E+00  0.000000E+00  0.000000E+00
   Multipole                     :  0.144412E-01  0.125519E+00 -0.126567E-01
   Pulay + GGA                   : -0.599143E-01 -0.812214E-01  0.448626E-01
   Van der Waals                 : -0.168052E-02  0.222155E-02  0.258070E-02
   ----------------------------------------------------------------
   Total forces(   9)            :  0.552482E-01  0.735176E-01 -0.155177E+00
  atom #   10
   Hellmann-Feynman              :  0.362307E+01  0.499040E+01  0.210454E+01
   Ionic forces                  :  0.000000E+00  0.000000E+00  0.000000E+00
   Multipole                     :  0.886041E-01 -0.287149E-01  0.277592E+00
   Pulay + GGA                   : -0.231317E+01 -0.263785E+01  0.505403E-01
   Van der Waals                 :  0.359004E-02 -0.112299E-01 -0.150230E-02
   ----------------------------------------------------------------
   Total forces(  10)            :  0.140210E+01  0.231261E+01  0.243117E+01
  atom #   11
   Hellmann-Feynman              :  0.417696E+01 -0.254701E+01  0.138102E+02
   Ionic forces                  :  0.000000E+00  0.000000E+00  0.000000E+00
   Multipole                     :  0.103580E+00 -0.560784E+00  0.685144E+00
   Pulay + GGA                   : -0.386058E+01  0.394535E+01 -0.135285E+02
   Van der Waals                 : -0.295710E-02 -0.105289E-01  0.593953E-02
   ----------------------------------------------------------------
   Total forces(  11)            :  0.417004E+00  0.827030E+00  0.972771E+00
  atom #   12
   Hellmann-Feynman              : -0.137515E+02 -0.719846E+01  0.170913E+00
   Ionic forces                  :  0.000000E+00  0.000000E+00  0.000000E+00
   Multipole                     : -0.950161E+00 -0.139950E+01 -0.733033E-01
   Pulay + GGA                   :  0.131492E+02  0.597494E+01 -0.240585E+01
   Van der Waals                 :  0.134530E-02  0.699456E-02  0.342113E-02
   ----------------------------------------------------------------
   Total forces(  12)            : -0.155113E+01 -0.261602E+01 -0.230482E+01
  atom #   13
   Hellmann-Feynman              : -0.283390E+00 -0.697327E+00 -0.130243E+01
   Ionic forces                  :  0.000000E+00  0.000000E+00  0.000000E+00
   Multipole                     :  0.782496E-01 -0.494885E-01 -0.403773E-01
   Pulay + GGA                   : -0.283713E+00  0.238143E-01  0.333647E+00
   Van der Waals                 :  0.663728E-03 -0.112919E-02 -0.440877E-02
   ----------------------------------------------------------------
   Total forces(  13)            : -0.488190E+00 -0.724130E+00 -0.101357E+01

  Timings for VdW correction (Tkatchenko-Scheffler 2009 or later):
  | CPU time:        0.089 s, Wall clock time:        0.090 s.
  Removing unitary transformations (pure translations, rotations) from forces on atoms.
  Atomic forces before filtering:
  | Net force on center of mass :   0.142741E-02 -0.386346E-02 -0.689985E-02 eV/A
  | Net torque on center of mass:   0.224092E-02  0.398584E-02  0.488628E-02 eV
  Atomic forces after filtering:
  | Net force on center of mass :   0.267609E-15 -0.535218E-15  0.535218E-15 eV/A
  | Net torque on center of mass:  -0.188817E-14  0.118011E-15  0.566451E-15 eV

  Energy and forces in a compact form:
  | Total energy uncorrected      :         -0.880229423379179E+04 eV
  | Total energy corrected        :         -0.880229423379179E+04 eV  <-- do not rely on this value for anything but (periodic) metals
  | Electronic free energy        :         -0.880229423379179E+04 eV
  Total atomic forces (unitary forces cleaned) [eV/Ang]:
  |   1         -0.201252369320334E+00          0.233362575639656E+00         -0.402367084088772E+00
  |   2          0.407787910552634E+00          0.618308578333731E-01          0.223227921351338E+00
  |   3          0.211281584394699E+00          0.136889602840788E+00          0.489166674736173E+00
  |   4         -0.130850387148930E+00         -0.137019014858193E+00         -0.141342120850714E+00
  |   5         -0.112156359121319E+00          0.176483899278922E+00         -0.423950128207535E+00
  |   6          0.107647378583337E+00         -0.343776586845187E+00          0.193810527356345E+00
  |   7         -0.191321348514794E+00         -0.673071492034117E-02         -0.665070922616944E-01
  |   8          0.756288754868425E-01          0.425346849630859E-02          0.194786164900707E+00
  |   9          0.555300538274213E-01          0.737889375935634E-01         -0.154737074026049E+00
  |  10          0.140163633743150E+01          0.231295458010020E+01          0.243174981411171E+01
  |  11          0.416256125520389E+00          0.827389242758487E+00          0.973427666631197E+00
  |  12         -0.155160953897463E+01         -0.261557822524492E+01         -0.230433171219281E+01
  |  13         -0.488578262716823E+00         -0.723848622672659E+00         -0.101293355745990E+01

  ------------------------------------ 
  Start decomposition of the XC Energy 
  ------------------------------------ 
  X and C from original XC functional choice 
  Hartree-Fock Energy :          0.000000000 Ha              0.000000000 eV
  X Energy            :        -41.039682974 Ha          -1116.746593159 eV
  C Energy            :         -1.601337690 Ha            -43.574615595 eV
  Total XC Energy     :        -42.641020664 Ha          -1160.321208754 eV
  ------------------------------------ 
  LDA X and C from self-consistent density 
  X Energy LDA        :        -37.259270134 Ha          -1013.876325811 eV
  C Energy LDA        :         -3.138840906 Ha            -85.412206776 eV
  ------------------------------------ 
  End decomposition of the XC Energy 
  ------------------------------------ 

------------------------------------------------------------

------------------------------------------------------------------------------
  Final output of selected total energy values:

  The following output summarizes some interesting total energy values
  at the end of a run (AFTER all relaxation, molecular dynamics, etc.).

  | Total energy of the DFT / Hartree-Fock s.c.f. calculation      :          -8802.294233792 eV
  | Final zero-broadening corrected energy (caution - metals only) :          -8802.294233792 eV
  | For reference only, the value of 1 Hartree used in FHI-aims is :             27.211384500 eV

  Before relying on these values, please be sure to understand exactly which
  total energy value is referred to by a given number. Different objects may
  all carry the same name 'total energy'. Definitions:

  Total energy of the DFT / Hartree-Fock s.c.f. calculation:
  | Note that this energy does not include ANY quantities calculated after the
  | s.c.f. cycle, in particular not ANY RPA, MP2, etc. many-body perturbation terms.

  Final zero-broadening corrected energy:
  | For metallic systems only, a broadening of the occupation numbers at the Fermi
  | level can be extrapolated back to zero broadening by an electron-gas inspired
  | formula. For all systems that are not real metals, this value can be
  | meaningless and should be avoided.

------------------------------------------------------------------------------
  Methods described in the following list of references were used in this FHI-aims run.
  If you publish the results, please make sure to cite these reference if they apply.
  FHI-aims is an academic code, and for our developers (often, Ph.D. students
  and postdocs), scientific credit in the community is essential.
  Thank you for helping us!

  For any use of FHI-aims, please cite:

    Volker Blum, Ralf Gehrke, Felix Hanke, Paula Havu, Ville Havu,
    Xinguo Ren, Karsten Reuter, and Matthias Scheffler
    'Ab initio molecular simulations with numeric atom-centered orbitals'
    Computer Physics Communications 180, 2175-2196 (2009)
    http://dx.doi.org/10.1016/j.cpc.2009.06.022


  The scalable eigensolver library ELPA was used in your run.
  ELPA is essential especially for large systems on hundreds or thousands of CPUs.
  For ELPA, please cite:

    Andreas Marek, Volker Blum, Rainer Johanni, Ville Havu, Bruno Lang,
    Thomas Auckenthaler, Alexander Heinecke, Hans-Joachim Bungartz, and Hermann Lederer,
    'The ELPA Library - Scalable Parallel Eigenvalue Solutions
    for Electronic Structure Theory and Computational Science'
    The Journal of Physics: Condensed Matter 26, 213201 (2014).
    http://dx.doi.org/10.1088/0953-8984/26/21/213201


  The ELSI infrastructure was used in your run to solve the Kohn-Sham electronic structure.
  Please check out http://elsi-interchange.org to learn more.
  If scalability is important for your project, please acknowledge ELSI by citing:

    V. W-z. Yu, F. Corsetti, A. Garcia, W. P. Huhn, M. Jacquelin, W. Jia,
    B. Lange, L. Lin, J. Lu, W. Mi, A. Seifitokaldani, A. Vazquez-Mayagoitia,
    C. Yang, H. Yang, and V. Blum
    'ELSI: A unified software interface for Kohn-Sham electronic structure solvers'
    Computer Physics Communications 222, 267-285 (2018).
    http://dx.doi.org/10.1016/j.cpc.2017.09.007


  For the real-space grid partitioning and parallelization used in this calculation, please cite:

    Ville Havu, Volker Blum, Paula Havu, and Matthias Scheffler,
    'Efficient O(N) integration for all-electron electronic structure calculation'
    'using numerically tabulated basis functions'
    Journal of Computational Physics 228, 8367-8379 (2009).
    http://dx.doi.org/10.1016/j.jcp.2009.08.008

  Of course, there are many other important community references, e.g., those cited in the
  above references. Our list is limited to references that describe implementations in the
  FHI-aims code. The reason is purely practical (length of this list) - please credit others as well.

------------------------------------------------------------
          Leaving FHI-aims.
          Date     :  20200710, Time     :  152637.924

          Computational steps:
          | Number of self-consistency cycles          :           16
          | Number of SCF (re)initializations          :            1

          Detailed time accounting                     :  max(cpu_time)    wall_clock(cpu1)
          | Total time                                 :       22.556 s          22.647 s
          | Preparation time                           :        0.148 s           0.149 s
          | Boundary condition initalization           :        0.000 s           0.000 s
          | Grid partitioning                          :        0.111 s           0.112 s
          | Preloading free-atom quantities on grid    :        0.002 s           0.002 s
          | Free-atom superposition energy             :        0.085 s           0.085 s
          | Total time for integrations                :        8.571 s           8.593 s
          | Total time for solution of K.-S. equations :        0.036 s           0.038 s
          | Total time for density & force components  :        7.106 s           7.134 s
          | Total time for mixing                      :        0.212 s           0.215 s
          | Total time for Hartree multipole update    :        0.141 s           0.144 s
          | Total time for Hartree multipole sum       :        5.744 s           5.758 s
          | Total time for total energy evaluation     :        0.003 s           0.004 s
          | Total time for vdW correction              :        0.089 s           0.090 s

          Partial memory accounting:
          | Residual value for overall tracked memory usage across tasks :           0.000 MB (should be 0.000 MB)
          | Peak values for overall tracked memory usage (after allocating hessian_basis_wave):
          |   Minimum:        1.612 MB (on task 1)
          |   Maximum:        1.612 MB (on task 1)
          |   Average:        1.612 MB
          | Largest tracked array allocation (hessian_basis_wave):
          |   Minimum:        0.788 MB (on task 1)
          |   Maximum:        0.788 MB (on task 1)
          |   Average:        0.788 MB
          Note:  These values currently only include a subset of arrays which are explicitly tracked.
          The "true" memory usage will be greater.

          Have a nice day.
------------------------------------------------------------
