  MPI-parallelism will be employed.
------------------------------------------------------------
          Invoking FHI-aims ...
          Version 171221_1
          Compiled on 2019/09/09 at 14:39:39 on host puhti-login2.bullx.

          When using FHI-aims, please cite the following reference:

          Volker Blum, Ralf Gehrke, Felix Hanke, Paula Havu,
          Ville Havu, Xinguo Ren, Karsten Reuter, and Matthias Scheffler,
          'Ab Initio Molecular Simulations with Numeric Atom-Centered Orbitals',
          Computer Physics Communications 180, 2175-2196 (2009)

          For any questions about FHI-aims, please visit the aimsclub website
          with its forums and wiki. Contributions to both the forums and the
          wiki are warmly encouraged - they are for you, and everyone is welcome there.

------------------------------------------------------------



  Date     :  20200710, Time     :  150352.858
  Time zero on CPU 1             :   0.119920000000000E-01  s.
  Internal wall clock time zero  :           363625432.858  s.

  FHI-aims created a unique identifier for this run for later identification
  aims_uuid : 077AE4A1-ACA3-43CD-AAB5-5F6085D47D66

  Using        1 parallel tasks.
  Task        0 on host r18c46.bullx reporting.

  Performing system and environment tests:
  | Environment variable OMP_NUM_THREADS correctly set to 1.
  | Stacksize not measured: no C compiler
  | Checking for scalapack...
  | Testing pdtran()...
  | All pdtran() tests passed.

  Obtaining array dimensions for all initial allocations:
  
  -----------------------------------------------------------------------
  Parsing control.in (first pass over file, find array dimensions only).
  The contents of control.in will be repeated verbatim below
  unless switched off by setting 'verbatim_writeout .false.' .
  in the first line of control.in .
  -----------------------------------------------------------------------
  
  #########################################################################################
  #
  #  Volker Blum, FHI 2009 : Test run input file control.in for simple H2O
  #
  #########################################################################################
  #
  #  Physical model
  #
    xc                 pbe
    vdw_correction_hirshfeld
    spin               none
    relativistic       none
    charge             0.
  #
  #  SCF convergence
  #
    occupation_type    gaussian 0.01
    mixer              pulay
      n_max_pulay        10
      charge_mix_param   0.2
    sc_accuracy_rho    1E-5
    sc_accuracy_eev    1E-3
    sc_accuracy_etot   1E-6
    sc_accuracy_forces 1E-4
    sc_iter_limit      100
  #
  #  Relaxation
  #
  #  relax_geometry   bfgs 1.e-3
  #
  ################################################################################
  #
  #  FHI-aims code project
  #  VB, Fritz-Haber Institut, 2009
  #
  #  Suggested "light" defaults for H atom (to be pasted into control.in file)
  #  Be sure to double-check any results obtained with these settings for post-processing,
  #  e.g., with the "tight" defaults and larger basis sets.
  #
  ################################################################################
    species        H
  #     global species definitions
      nucleus             1
      mass                1.00794
  #
      l_hartree           4
  #
      cut_pot             3.5  1.5  1.0
      basis_dep_cutoff    1e-4
  #
      radial_base         24 5.0
      radial_multiplier   1
      angular_grids       specified
        division   0.2421   50
        division   0.3822  110
        division   0.4799  194
        division   0.5341  302
  #      division   0.5626  434
  #      division   0.5922  590
  #      division   0.6542  770
  #      division   0.6868 1202
  #      outer_grid  770
        outer_grid  302
  ################################################################################
  #
  #  Definition of "minimal" basis
  #
  ################################################################################
  #     valence basis states
      valence      1  s   1.
  #     ion occupancy
      ion_occ      1  s   0.5
  ################################################################################
  #
  #  Suggested additional basis functions. For production calculations,
  #  uncomment them one after another (the most important basis functions are
  #  listed first).
  #
  #  Basis constructed for dimers: 0.5 A, 0.7 A, 1.0 A, 1.5 A, 2.5 A
  #
  ################################################################################
  #  "First tier" - improvements: -1014.90 meV to -62.69 meV
       hydro 2 s 2.1
       hydro 2 p 3.5
  #  "Second tier" - improvements: -12.89 meV to -1.83 meV
  #     hydro 1 s 0.85
  #     hydro 2 p 3.7
  #     hydro 2 s 1.2
  #     hydro 3 d 7
  #  "Third tier" - improvements: -0.25 meV to -0.12 meV
  #     hydro 4 f 11.2
  #     hydro 3 p 4.8
  #     hydro 4 d 9
  #     hydro 3 s 3.2
  ################################################################################
  #
  #  FHI-aims code project
  #  VB, Fritz-Haber Institut, 2009
  #
  #  Suggested "light" defaults for C atom (to be pasted into control.in file)
  #  Be sure to double-check any results obtained with these settings for post-processing,
  #  e.g., with the "tight" defaults and larger basis sets.
  #
  ################################################################################
    species        C
  #     global species definitions
      nucleus             6
      mass                12.0107
  #
      l_hartree           4
  #
      cut_pot             3.5  1.5  1.0
      basis_dep_cutoff    1e-4
  #
      radial_base         34 5.0
      radial_multiplier   1
      angular_grids specified
        division   0.3326   50
        division   0.5710  110
        division   0.7727  194
        division   0.8772  302
  #      division   0.9334  434
  #      division   0.9625  590
  #      division   0.9924  770
  #      division   1.0230  974
  #      division   1.4589 1202
  #     outer_grid  974
       outer_grid 302
  ################################################################################
  #
  #  Definition of "minimal" basis
  #
  ################################################################################
  #     valence basis states
      valence      2  s   2.
      valence      2  p   2.
  #     ion occupancy
      ion_occ      2  s   1.
      ion_occ      2  p   1.
  ################################################################################
  #
  #  Suggested additional basis functions. For production calculations,
  #  uncomment them one after another (the most important basis functions are
  #  listed first).
  #
  #  Constructed for dimers: 1.0 A, 1.25 A, 1.5 A, 2.0 A, 3.0 A
  #
  ################################################################################
  #  "First tier" - improvements: -1214.57 meV to -155.61 meV
       hydro 2 p 1.7
       hydro 3 d 6
       hydro 2 s 4.9
  #  "Second tier" - improvements: -67.75 meV to -5.23 meV
  #     hydro 4 f 9.8
  #     hydro 3 p 5.2
  #     hydro 3 s 4.3
  #     hydro 5 g 14.4
  #     hydro 3 d 6.2
  #  "Third tier" - improvements: -2.43 meV to -0.60 meV
  #     hydro 2 p 5.6
  #     hydro 2 s 1.4
  #     hydro 3 d 4.9
  #     hydro 4 f 11.2
  #  "Fourth tier" - improvements: -0.39 meV to -0.18 meV
  #     hydro 2 p 2.1
  #     hydro 5 g 16.4
  #     hydro 4 d 13.2
  #     hydro 3 s 13.6
  #     hydro 4 f 17.6
  #  Further basis functions - improvements: -0.08 meV and below
  #     hydro 3 s 2
  #     hydro 3 p 6
  #     hydro 4 d 20
  ################################################################################
  #
  #  FHI-aims code project
  #  VB, Fritz-Haber Institut, 2009
  #
  #  Suggested "light" defaults for N atom (to be pasted into control.in file)
  #  Be sure to double-check any results obtained with these settings for post-processing,
  #  e.g., with the "tight" defaults and larger basis sets.
  #
  ################################################################################
    species        N
  #     global species definitions
      nucleus             7
      mass                14.0067
  #
      l_hartree           4
  #
      cut_pot             3.5  1.5  1.0
      basis_dep_cutoff    1e-4
  #
      radial_base         35 5.0
      radial_multiplier   1
      angular_grids       specified
        division   0.2599   50
        division   0.4601  110
        division   0.5885  194
        division   0.6503  302
  #      division   0.6939  434
  #      division   0.7396  590
  #      division   0.7632  770
  #      division   0.8122  974
  #      division   1.1604 1202
  #      outer_grid  974
        outer_grid  302
  ################################################################################
  #
  #  Definition of "minimal" basis
  #
  ################################################################################
  #     valence basis states
      valence      2  s   2.
      valence      2  p   3.
  #     ion occupancy
      ion_occ      2  s   1.
      ion_occ      2  p   2.
  ################################################################################
  #
  #  Suggested additional basis functions. For production calculations,
  #  uncomment them one after another (the most important basis functions are
  #  listed first).
  #
  #  Constructed for dimers: 1.0 A, 1.1 A, 1.5 A, 2.0 A, 3.0 A
  #
  ################################################################################
  #  "First tier" - improvements: -1193.42 meV to -220.60 meV
       hydro 2 p 1.8
       hydro 3 d 6.8
       hydro 3 s 5.8
  #  "Second tier" - improvements: -80.21 meV to -6.86 meV
  #     hydro 4 f 10.8
  #     hydro 3 p 5.8
  #     hydro 1 s 0.8
  #     hydro 5 g 16
  #     hydro 3 d 4.9
  #  "Third tier" - improvements: -4.29 meV to -0.53 meV
  #     hydro 3 s 16
  #     ionic 2 p auto
  #     hydro 3 d 6.6
  #     hydro 4 f 11.6
  #  "Fourth tier" - improvements: -0.75 meV to -0.25 meV
  #     hydro 2 p 4.5
  #     hydro 2 s 2.4
  #     hydro 5 g 14.4
  #     hydro 4 d 14.4
  #     hydro 4 f 16.8
  # Further basis functions - -0.21 meV and below
  #     hydro 3 p 14.8
  #     hydro 3 s 4.4
  #     hydro 3 d 19.6
  #     hydro 5 g 12.8
  ################################################################################
  #
  #  FHI-aims code project
  #  VB, Fritz-Haber Institut, 2009
  #
  #  Suggested "light" defaults for O atom (to be pasted into control.in file)
  #  Be sure to double-check any results obtained with these settings for post-processing,
  #  e.g., with the "tight" defaults and larger basis sets.
  #
  ################################################################################
    species        O
  #     global species definitions
      nucleus             8
      mass                15.9994
  #
      l_hartree           4
  #
      cut_pot             3.5  1.5  1.0
      basis_dep_cutoff    1e-4
  #
      radial_base         36 5.0
      radial_multiplier   1
       angular_grids specified
        division   0.2659   50
        division   0.4451  110
        division   0.6052  194
        division   0.7543  302
  #      division   0.8014  434
  #      division   0.8507  590
  #      division   0.8762  770
  #      division   0.9023  974
  #      division   1.2339 1202
  #      outer_grid 974
        outer_grid 302
  ################################################################################
  #
  #  Definition of "minimal" basis
  #
  ################################################################################
  #     valence basis states
      valence      2  s   2.
      valence      2  p   4.
  #     ion occupancy
      ion_occ      2  s   1.
      ion_occ      2  p   3.
  ################################################################################
  #
  #  Suggested additional basis functions. For production calculations,
  #  uncomment them one after another (the most important basis functions are
  #  listed first).
  #
  #  Constructed for dimers: 1.0 A, 1.208 A, 1.5 A, 2.0 A, 3.0 A
  #
  ################################################################################
  #  "First tier" - improvements: -699.05 meV to -159.38 meV
       hydro 2 p 1.8
       hydro 3 d 7.6
       hydro 3 s 6.4
  #  "Second tier" - improvements: -49.91 meV to -5.39 meV
  #     hydro 4 f 11.6
  #     hydro 3 p 6.2
  #     hydro 3 d 5.6
  #     hydro 5 g 17.6
  #     hydro 1 s 0.75
  #  "Third tier" - improvements: -2.83 meV to -0.50 meV
  #     ionic 2 p auto
  #     hydro 4 f 10.8
  #     hydro 4 d 4.7
  #     hydro 2 s 6.8
  #  "Fourth tier" - improvements: -0.40 meV to -0.12 meV
  #     hydro 3 p 5
  #     hydro 3 s 3.3
  #     hydro 5 g 15.6
  #     hydro 4 f 17.6
  #     hydro 4 d 14
  # Further basis functions - -0.08 meV and below
  #     hydro 3 s 2.1
  #     hydro 4 d 11.6
  #     hydro 3 p 16
  #     hydro 2 s 17.2
  
  -----------------------------------------------------------------------
  Completed first pass over input file control.in .
  -----------------------------------------------------------------------
  
  
  -----------------------------------------------------------------------
  Parsing geometry.in (first pass over file, find array dimensions only).
  The contents of geometry.in will be repeated verbatim below
  unless switched off by setting 'verbatim_writeout .false.' .
  in the first line of geometry.in .
  -----------------------------------------------------------------------
  
  atom  0.00000 0.00000 0.00000 C
  atom  1.09300 0.00000 0.00000 H
  atom  -0.47961 0.00000 -1.41207 N
  atom  0.28148 -0.31277 -2.01601 H
  atom  -1.27229 -0.63404 -1.48803 H
  atom  -0.49584 1.26211 0.72868 C
  atom  -1.58789 1.28919 0.74431 H
  atom  -0.13407 1.27425 1.75947 H
  atom  -0.13407 2.16087 0.22380 H
  atom  -0.39425 -1.28861 0.74398 C
  atom  -0.10189 -1.56493 1.88303 O
  atom  -1.10210 -2.13717 0.06896 O
  atom  -1.90376 -1.59824 -0.03997 H
  
  -----------------------------------------------------------------------
  Completed first pass over input file geometry.in .
  -----------------------------------------------------------------------
  

  Basic array size parameters:
  | Number of species                 :        4
  | Number of atoms                   :       13
  | Max. basis fn. angular momentum   :        2
  | Max. atomic/ionic basis occupied n:        2
  | Max. number of basis fn. types    :        2
  | Max. radial fns per species/type  :        3
  | Max. logarithmic grid size        :     1301
  | Max. radial integration grid size :       36
  | Max. angular integration grid size:      302
  | Max. angular grid division number :        8
  | Radial grid for Hartree potential :     1301
  | Number of spin channels           :        1

------------------------------------------------------------
          Reading file control.in.
------------------------------------------------------------
  XC: Using PBE gradient-corrected functionals.
  Spin treatment: No spin polarisation.
  Non-relativistic treatment of kinetic energy.
  Charge =   0.000000E+00: Neutral system requested explicitly.
  Occupation type: Gaussian broadening, width =   0.100000E-01 eV.
  Using pulay charge density mixing.
  Pulay mixing - number of memorized iterations:   10
  Charge density mixing - mixing parameter:     0.2000
  Convergence accuracy of self-consistent charge density:  0.1000E-04
  Convergence accuracy of sum of eigenvalues:  0.1000E-02
  Convergence accuracy of total energy:  0.1000E-05
  Convergence accuracy of forces:  0.1000E-03
  Maximum number of s.-c. iterations  :   100
 
  Reading configuration options for species H                   .
  | Found nuclear charge :   1.0000
  | Found atomic mass :    1.00794000000000      amu
  | Found l_max for Hartree potential  :   4
  | Found cutoff potl. onset [A], width [A], scale factor :    3.50000    1.50000    1.00000
  | Threshold for basis-dependent cutoff potential is   0.100000E-03
  | Found data for basic radial integration grid :    24 points, outermost radius =    5.000 A
  | Found multiplier for basic radial grid :   1
  | Found angular grid specification: user-specified.
  | Specified grid contains     5 separate shells.
  | Check grid settings after all constraints further below.
  | Found free-atom valence shell :  1 s   1.000
  | No ionic wave fns used. Skipping ion_occ.
  | Found hydrogenic basis function :  2 s   2.100
  | Found hydrogenic basis function :  2 p   3.500
  Species H                   : Missing cutoff potential type.
  Defaulting to exp(1/x)/(1-x)^2 type cutoff potential.
  Species H : No 'logarithmic' tag. Using default grid for free atom:
  | Default logarithmic grid data [bohr] : 0.1000E-03 0.1000E+03 0.1012E+01
  Species H : On-site basis accuracy parameter (for Gram-Schmidt orthonormalisation) not specified.
  Using default value basis_acc =  0.1000000E-03.
  Species H                   : Using default innermost maximum threshold i_radial=  2 for radial functions.
  Species H                   : Default cutoff onset for free atom density etc. : 0.35000000E+01 AA.
  Species H                   : Basic radial grid will be enhanced according to radial_multiplier =   1, to contain    24 grid points.
 
  Reading configuration options for species C                   .
  | Found nuclear charge :   6.0000
  | Found atomic mass :    12.0107000000000      amu
  | Found l_max for Hartree potential  :   4
  | Found cutoff potl. onset [A], width [A], scale factor :    3.50000    1.50000    1.00000
  | Threshold for basis-dependent cutoff potential is   0.100000E-03
  | Found data for basic radial integration grid :    34 points, outermost radius =    5.000 A
  | Found multiplier for basic radial grid :   1
  | Found angular grid specification: user-specified.
  | Specified grid contains     5 separate shells.
  | Check grid settings after all constraints further below.
  | Found free-atom valence shell :  2 s   2.000
  | Found free-atom valence shell :  2 p   2.000
  | No ionic wave fns used. Skipping ion_occ.
  | No ionic wave fns used. Skipping ion_occ.
  | Found hydrogenic basis function :  2 p   1.700
  | Found hydrogenic basis function :  3 d   6.000
  | Found hydrogenic basis function :  2 s   4.900
  Species C                   : Missing cutoff potential type.
  Defaulting to exp(1/x)/(1-x)^2 type cutoff potential.
  Species C : No 'logarithmic' tag. Using default grid for free atom:
  | Default logarithmic grid data [bohr] : 0.1000E-03 0.1000E+03 0.1012E+01
  Species C : On-site basis accuracy parameter (for Gram-Schmidt orthonormalisation) not specified.
  Using default value basis_acc =  0.1000000E-03.
  Species C                   : Using default innermost maximum threshold i_radial=  2 for radial functions.
  Species C                   : Default cutoff onset for free atom density etc. : 0.35000000E+01 AA.
  Species C                   : Basic radial grid will be enhanced according to radial_multiplier =   1, to contain    34 grid points.
 
  Reading configuration options for species N                   .
  | Found nuclear charge :   7.0000
  | Found atomic mass :    14.0067000000000      amu
  | Found l_max for Hartree potential  :   4
  | Found cutoff potl. onset [A], width [A], scale factor :    3.50000    1.50000    1.00000
  | Threshold for basis-dependent cutoff potential is   0.100000E-03
  | Found data for basic radial integration grid :    35 points, outermost radius =    5.000 A
  | Found multiplier for basic radial grid :   1
  | Found angular grid specification: user-specified.
  | Specified grid contains     5 separate shells.
  | Check grid settings after all constraints further below.
  | Found free-atom valence shell :  2 s   2.000
  | Found free-atom valence shell :  2 p   3.000
  | No ionic wave fns used. Skipping ion_occ.
  | No ionic wave fns used. Skipping ion_occ.
  | Found hydrogenic basis function :  2 p   1.800
  | Found hydrogenic basis function :  3 d   6.800
  | Found hydrogenic basis function :  3 s   5.800
  Species N                   : Missing cutoff potential type.
  Defaulting to exp(1/x)/(1-x)^2 type cutoff potential.
  Species N : No 'logarithmic' tag. Using default grid for free atom:
  | Default logarithmic grid data [bohr] : 0.1000E-03 0.1000E+03 0.1012E+01
  Species N : On-site basis accuracy parameter (for Gram-Schmidt orthonormalisation) not specified.
  Using default value basis_acc =  0.1000000E-03.
  Species N                   : Using default innermost maximum threshold i_radial=  2 for radial functions.
  Species N                   : Default cutoff onset for free atom density etc. : 0.35000000E+01 AA.
  Species N                   : Basic radial grid will be enhanced according to radial_multiplier =   1, to contain    35 grid points.
 
  Reading configuration options for species O                   .
  | Found nuclear charge :   8.0000
  | Found atomic mass :    15.9994000000000      amu
  | Found l_max for Hartree potential  :   4
  | Found cutoff potl. onset [A], width [A], scale factor :    3.50000    1.50000    1.00000
  | Threshold for basis-dependent cutoff potential is   0.100000E-03
  | Found data for basic radial integration grid :    36 points, outermost radius =    5.000 A
  | Found multiplier for basic radial grid :   1
  | Found angular grid specification: user-specified.
  | Specified grid contains     5 separate shells.
  | Check grid settings after all constraints further below.
  | Found free-atom valence shell :  2 s   2.000
  | Found free-atom valence shell :  2 p   4.000
  | No ionic wave fns used. Skipping ion_occ.
  | No ionic wave fns used. Skipping ion_occ.
  | Found hydrogenic basis function :  2 p   1.800
  | Found hydrogenic basis function :  3 d   7.600
  | Found hydrogenic basis function :  3 s   6.400
  Species O                   : Missing cutoff potential type.
  Defaulting to exp(1/x)/(1-x)^2 type cutoff potential.
  Species O : No 'logarithmic' tag. Using default grid for free atom:
  | Default logarithmic grid data [bohr] : 0.1000E-03 0.1000E+03 0.1012E+01
  Species O : On-site basis accuracy parameter (for Gram-Schmidt orthonormalisation) not specified.
  Using default value basis_acc =  0.1000000E-03.
  Species O                   : Using default innermost maximum threshold i_radial=  2 for radial functions.
  Species O                   : Default cutoff onset for free atom density etc. : 0.35000000E+01 AA.
  Species O                   : Basic radial grid will be enhanced according to radial_multiplier =   1, to contain    36 grid points.
 
  Finished reading input file 'control.in'. Consistency checks are next.
 
  MPI_IN_PLACE appears to work with this MPI implementation.
  | Keeping use_mpi_in_place .true. (see manual).
  Target number of points in a grid batch is not set. Defaulting to  100
  Method for grid partitioning is not set. Defaulting to parallel hash+maxmin partitioning.
  Batch size limit is not set. Defaulting to    200
  By default, will store active basis functions for each batch.
  If in need of memory, prune_basis_once .false. can be used to disable this option.
  communication_type for Hartree potential was not specified.
  Defaulting to calc_hartree .
  Pulay mixer: Number of initial linear mixing iterations not set.
  Defaulting to    0 iterations.
  Work space size for distributed Hartree potential not set.
  Defaulting to   0.200000E+03 MB.
  Algorithm-dependent basis array size parameters:
  | n_max_pulay                         :       10
  Presetting      1001 iterations before the initial mixing cycle
  is restarted anyway using the sc_init_iter criterion / keyword.
  Presetting a factor      1.000 between actual scf density residual
  and density convergence criterion sc_accuracy_rho below which sc_init_iter
  takes no effect.
  Geometry relaxation not requested: no relaxation will be performed.
  Handling of forces: Unphysical translation and rotation will be removed from forces.
  No accuracy limit for integral partition fn. given. Defaulting to  0.1000E-14.
  No threshold value for u(r) in integrations given. Defaulting to  0.1000E-05.
  No accuracy for occupation numbers given. Defaulting to  0.1000E-12.
  No threshold value for occupation numbers given. Defaulting to  0.0000E+00.
  No accuracy for fermi level given. Defaulting to  0.1000E-19.
  Maximum # of iterations to find E_F not set. Defaulting to  200.
  Preferred method for the eigenvalue solver ('KS_method') not specified in 'control.in'.
  Defaulting to serial version, 'lapack_fast'.
  Will not use alltoall communication since running on < 1024 CPUs.
  Threshold for basis singularities not set.
  Default threshold for basis singularities:  0.1000E-04
  partition_type (choice of integration weights) for integrals was not specified.
  | Using a version of the partition function of Stratmann and coworkers ('stratmann_smoother').
  | At each grid point, the set of atoms used to build the partition table is smoothly restricted to
  | only those atoms whose free-atom density would be non-zero at that grid point.
  Partitioning for Hartree potential was not defined. Using partition_type for integrals.
  | Adjusted default value of keyword multip_moments_threshold to:       0.10000000E-11
  | This value may affect high angular momentum components of the Hartree potential in periodic systems.
  No q(lm)/r^(l+1) cutoff set for long-range Hartree potential.
  | Using default value of  0.100000E-09 .
  | Verify using the multipole_threshold keyword.
  Defaulting to new monopole extrapolation.
  Density update method: automatic selection selected.
------------------------------------------------------------


------------------------------------------------------------
          Reading geometry description geometry.in.
------------------------------------------------------------
  Input structure read successfully.
  The structure contains       13 atoms,  and a total of         48.000 electrons.

  Input geometry:
  | No unit cell requested.
  | Atomic structure:
  |       Atom                x [A]            y [A]            z [A]
  |    1: Species C             0.00000000        0.00000000        0.00000000
  |    2: Species H             1.09300000        0.00000000        0.00000000
  |    3: Species N            -0.47961000        0.00000000       -1.41207000
  |    4: Species H             0.28148000       -0.31277000       -2.01601000
  |    5: Species H            -1.27229000       -0.63404000       -1.48803000
  |    6: Species C            -0.49584000        1.26211000        0.72868000
  |    7: Species H            -1.58789000        1.28919000        0.74431000
  |    8: Species H            -0.13407000        1.27425000        1.75947000
  |    9: Species H            -0.13407000        2.16087000        0.22380000
  |   10: Species C            -0.39425000       -1.28861000        0.74398000
  |   11: Species O            -0.10189000       -1.56493000        1.88303000
  |   12: Species O            -1.10210000       -2.13717000        0.06896000
  |   13: Species H            -1.90376000       -1.59824000       -0.03997000
  |

  | The smallest distance between any two atoms is         0.97209570 AA.
  |
  | The first atom of this pair is atom number                     12 .
  | The second atom of this pair is atom number                    13 .

  Number of empty states per atom not set in control.in - providing a guess from actual geometry.
  | Total number of empty states used during s.c.f. cycle:       29
  If you use a very high smearing, use empty_states (per atom!) in control.in to increase this value.

  Structure-dependent array size parameters: 
  | Maximum number of distinct radial functions  :       21
  | Maximum number of basis functions            :      119
  | Number of Kohn-Sham states (occupied + empty):       53
------------------------------------------------------------

------------------------------------------------------------
          Preparing all fixed parts of the calculation.
------------------------------------------------------------
  Determining machine precision:
    2.225073858507201E-308
  Setting up grids for atomic and cluster calculations.

  Creating wave function, potential, and density for free atoms.

  Species: H

  List of occupied orbitals and eigenvalues:
    n    l              occ      energy [Ha]    energy [eV]
    1    0           1.0000        -0.237589        -6.4651


  Species: C

  List of occupied orbitals and eigenvalues:
    n    l              occ      energy [Ha]    energy [eV]
    1    0           2.0000       -10.038835      -273.1706
    2    0           2.0000        -0.502696       -13.6791
    2    1           2.0000        -0.191971        -5.2238


  Species: N

  List of occupied orbitals and eigenvalues:
    n    l              occ      energy [Ha]    energy [eV]
    1    0           2.0000       -14.128000      -384.4424
    2    0           2.0000        -0.681077       -18.5330
    2    1           3.0000        -0.259788        -7.0692


  Species: O

  List of occupied orbitals and eigenvalues:
    n    l              occ      energy [Ha]    energy [eV]
    1    0           2.0000       -18.898188      -514.2459
    2    0           2.0000        -0.878505       -23.9053
    2    1           4.0000        -0.331779        -9.0282

  Creating fixed part of basis set: Ionic, confined, hydrogenic.
 
  H                    hydrogenic:
 
  List of hydrogenic basis orbitals: 
    n    l      effective z      eigenvalue [eV]  inner max. [A]     outer max. [A]     outer radius [A]   
    2    0         2.100000       -14.9728           0.193243           1.317208           4.583499
    2    1         3.500000       -41.6669           0.602369           0.602369           3.723403
 
 
  C                    hydrogenic:
 
  List of hydrogenic basis orbitals: 
    n    l      effective z      eigenvalue [eV]  inner max. [A]     outer max. [A]     outer radius [A]   
    2    1         1.700000        -9.7616           1.230570           1.230570           4.607917
    3    2         6.000000       -54.4224           0.792453           0.792453           3.883070
    2    0         4.900000       -81.6679           0.082559           0.562749           3.078220
 
 
  N                    hydrogenic:
 
  List of hydrogenic basis orbitals: 
    n    l      effective z      eigenvalue [eV]  inner max. [A]     outer max. [A]     outer radius [A]   
    2    1         1.800000       -10.9749           1.177451           1.177451           4.573712
    3    2         6.800000       -69.9026           0.704619           0.704619           3.538137
    3    0         5.800000       -50.8545           0.067388           1.191934           4.250239
 
 
  O                    hydrogenic:
 
  List of hydrogenic basis orbitals: 
    n    l      effective z      eigenvalue [eV]  inner max. [A]     outer max. [A]     outer radius [A]   
    2    1         1.800000       -10.9749           1.164242           1.164242           4.578029
    3    2         7.600000       -87.3180           0.624125           0.624125           3.251020
    3    0         6.400000       -61.9207           0.061167           1.081902           4.001998
 

  Adding cutoff potential to free-atom effective potential.
  Creating atomic-like basis functions for current effective potential.

  Species H                   :

  List of atomic basis orbitals and eigenvalues:
    n    l      energy [Ha]    energy [eV]    outer radius [A]
    1    0        -0.237589        -6.4651       4.527807


  Species C                   :

  List of atomic basis orbitals and eigenvalues:
    n    l      energy [Ha]    energy [eV]    outer radius [A]
    1    0       -10.038835      -273.1706       1.934409
    2    0        -0.502696       -13.6791       4.496620
    2    1        -0.191971        -5.2238       4.551928


  Species N                   :

  List of atomic basis orbitals and eigenvalues:
    n    l      energy [Ha]    energy [eV]    outer radius [A]
    1    0       -14.128000      -384.4424       1.637919
    2    0        -0.681077       -18.5330       4.463241
    2    1        -0.259788        -7.0692       4.518138


  Species O                   :

  List of atomic basis orbitals and eigenvalues:
    n    l      energy [Ha]    energy [eV]    outer radius [A]
    1    0       -18.898188      -514.2459       1.415765
    2    0        -0.878505       -23.9053       4.413171
    2    1        -0.331779        -9.0282       4.522403

  Assembling full basis from fixed parts.
  | Species H :   atomic orbital   1 s accepted.
  | Species H :    hydro orbital   2 s accepted.
  | Species H :    hydro orbital   2 p accepted.
  | Species C :   atomic orbital   1 s accepted.
  | Species C :    hydro orbital   2 s accepted.
  | Species C :   atomic orbital   2 s accepted.
  | Species C :   atomic orbital   2 p accepted.
  | Species C :    hydro orbital   2 p accepted.
  | Species C :    hydro orbital   3 d accepted.
  | Species N :   atomic orbital   1 s accepted.
  | Species N :    hydro orbital   3 s accepted.
  | Species N :   atomic orbital   2 s accepted.
  | Species N :   atomic orbital   2 p accepted.
  | Species N :    hydro orbital   2 p accepted.
  | Species N :    hydro orbital   3 d accepted.
  | Species O :   atomic orbital   1 s accepted.
  | Species O :    hydro orbital   3 s accepted.
  | Species O :   atomic orbital   2 s accepted.
  | Species O :   atomic orbital   2 p accepted.
  | Species O :    hydro orbital   2 p accepted.
  | Species O :    hydro orbital   3 d accepted.
 
  Basis size parameters after reduction:
  | Total number of radial functions:       21
  | Total number of basis functions :      119
 
  Per-task memory consumption for arrays in subroutine allocate_ext:
  |           5.250512MB.
  Testing on-site integration grid accuracy.
  |  Species  Function  <phi|h_atom|phi> (log., in eV)  <phi|h_atom|phi> (rad., in eV)
           1        1                 -6.4663192853                 -6.4651273558
           1        2                 13.7111246313                 13.7170609718
           1        3                 25.2673269279                 25.2674696378
           2        4               -273.1705927641               -273.1705631568
           2        5                -10.7109323383                -10.7107120029
           2        6                 17.4381822266                 17.4352413244
           2        7                 -5.2255326521                 -5.2270484734
           2        8                  8.6835629259                  8.6603288385
           2        9                 27.4952418996                 27.4953360207
           3       10               -384.4424306495               -384.4423701208
           3       11                 12.5842251816                 12.5842222903
           3       12                -15.7264628251                -15.7264433455
           3       13                 -7.0696854293                 -7.0701769954
           3       14                  8.8090390882                  8.7901077751
           3       15                 35.9586762123                 35.9588528632
           4       16               -514.2458688638               -514.2457643834
           4       17                 15.1795651126                 15.1795290741
           4       18                -21.5359799773                -21.5360846186
           4       19                 -9.0283069236                 -9.0284644067
           4       20                  8.3027758564                  8.2834874195
           4       21                 45.8339351984                 45.8338762259

  Preparing densities etc. for the partition functions (integrals / Hartree potential).

  Preparations completed.
  max(cpu_time)          :      0.148 s.
  Wall clock time (cpu1) :      0.148 s.
------------------------------------------------------------

------------------------------------------------------------
          Begin self-consistency loop: Initialization.

          Date     :  20200710, Time     :  150353.021
------------------------------------------------------------

  Initializing index lists of integration centers etc. from given atomic structure:
  | Number of centers in hartree potential         :        13
  | Number of centers in hartree multipole         :        13
  | Number of centers in electron density summation:        13
  | Number of centers in basis integrals           :        13
  | Number of centers in integrals                 :        13
  | Number of centers in hamiltonian               :        13
  Partitioning the integration grid into batches with parallel hashing+maxmin method.
  | Number of batches:      958
  | Maximal batch size:     139
  | Minimal batch size:      66
  | Average batch size:      72.699
  | Standard deviation of batch sizes:      17.236

  Integration load balanced across     1 MPI tasks.
  Work distribution over tasks is as follows:
  Task     0 has      69646 integration points.
  Initializing partition tables, free-atom densities, potentials, etc. across the integration grid (initialize_grid_storage).
  | initialize_grid_storage: Actual outermost partition radius vs. multipole_radius_free
  | (-- VB: in principle, multipole_radius_free should be larger, hence this output)
  | Species        1: Confinement radius =              4.999999999999999 AA, multipole_radius_free =              5.054417573612229 AA.
  | Species        1: outer_partition_radius set to              5.054417573612229 AA .
  | Species        2: Confinement radius =              4.999999999999999 AA, multipole_radius_free =              5.019602836301480 AA.
  | Species        2: outer_partition_radius set to              5.019602836301480 AA .
  | Species        3: Confinement radius =              4.999999999999999 AA, multipole_radius_free =              5.043624274424571 AA.
  | Species        3: outer_partition_radius set to              5.043624274424571 AA .
  | Species        4: Confinement radius =              4.999999999999999 AA, multipole_radius_free =              5.048384829883283 AA.
  | Species        4: outer_partition_radius set to              5.048384829883283 AA .
  | Original list of interatomic distances with          13 x         13 entries is created.
  | Net number of integration points:    69646
  | of which are non-zero points    :    59471
  Renormalizing the initial density to the exact electron count on the 3D integration grid.
  | Initial density: Formal number of electrons (from input files) :      48.0000000000
  | Integrated number of electrons on 3D grid     :      48.0000348268
  | Charge integration error                      :       0.0000348268
  | Normalization factor for density and gradient :       0.9999992744
  Obtaining max. number of non-zero basis functions in each batch (get_n_compute_maxes).
  | Maximal number of non-zero basis functions:      119 in task     0
  Selecting the method for density update.
  Loop over occupied states selected for charge density update.
  Allocating        0.050 MB for KS_eigenvector
  Integrating Hamiltonian matrix: batch-based integration.
  Time summed over all CPUs for integration: real work        0.500 s, elapsed        0.500 s
  Integrating overlap matrix.
  Time summed over all CPUs for integration: real work        0.216 s, elapsed        0.216 s

  Updating Kohn-Sham eigenvalues and eigenvectors using ELSI and the ELPA eigensolver.
  Overlap matrix is nonsingular
  | Lowest eigenvalue of overlap  :  0.47E-02
  | Highest eigenvalue of overlap :  0.63E+01
  Finished singularity check of overlap matrix
  | Time :     0.002 s
  Finished Cholesky decomposition
  | Time :     0.001 s
  Finished transformation to standard eigenproblem
  | Time :     0.000 s
  Starting LAPACK eigensolver
  Finished solving standard eigenproblem
  | Time :     0.002 s
  Finished back-transformation of eigenvectors
  | Time :     0.000 s

  Obtaining occupation numbers and chemical potential using ELSI.
  | Chemical potential (Fermi level):    -9.61773863eV
  Writing Kohn-Sham eigenvalues.

  State    Occupation    Eigenvalue [Ha]    Eigenvalue [eV]
      1       2.00000         -19.008237         -517.24044
      2       2.00000         -18.977192         -516.39568
      3       2.00000         -14.245977         -387.65275
      4       2.00000         -10.166595         -276.64712
      5       2.00000         -10.141462         -275.96322
      6       2.00000         -10.132125         -275.70916
      7       2.00000          -1.183380          -32.20142
      8       2.00000          -1.099714          -29.92474
      9       2.00000          -0.990817          -26.96149
     10       2.00000          -0.861772          -23.45000
     11       2.00000          -0.751468          -20.44849
     12       2.00000          -0.679433          -18.48831
     13       2.00000          -0.643169          -17.50152
     14       2.00000          -0.611622          -16.64308
     15       2.00000          -0.577107          -15.70387
     16       2.00000          -0.566583          -15.41750
     17       2.00000          -0.549642          -14.95652
     18       2.00000          -0.541120          -14.72462
     19       2.00000          -0.515067          -14.01570
     20       2.00000          -0.489972          -13.33281
     21       2.00000          -0.462719          -12.59122
     22       2.00000          -0.426770          -11.61299
     23       2.00000          -0.418120          -11.37763
     24       2.00000          -0.381458          -10.38001
     25       0.00000          -0.159774           -4.34768
     26       0.00000          -0.076175           -2.07281
     27       0.00000          -0.033612           -0.91464
     28       0.00000          -0.022149           -0.60272
     29       0.00000           0.006340            0.17253
     30       0.00000           0.017275            0.47009
     31       0.00000           0.024704            0.67223
     32       0.00000           0.030736            0.83638
     33       0.00000           0.046149            1.25578
     34       0.00000           0.071257            1.93901
     35       0.00000           0.088856            2.41790
     36       0.00000           0.135594            3.68970
     37       0.00000           0.155281            4.22541
     38       0.00000           0.210423            5.72590
     39       0.00000           0.214004            5.82335
     40       0.00000           0.227658            6.19489
     41       0.00000           0.254525            6.92597
     42       0.00000           0.266627            7.25528
     43       0.00000           0.291211            7.92426
     44       0.00000           0.302219            8.22380
     45       0.00000           0.317475            8.63894
     46       0.00000           0.360878            9.82000
     47       0.00000           0.366154            9.96356
     48       0.00000           0.380351           10.34987
     49       0.00000           0.439137           11.94952
     50       0.00000           0.477241           12.98639
     51       0.00000           0.517240           14.07482
     52       0.00000           0.532692           14.49528
     53       0.00000           0.564003           15.34731

  Highest occupied state (VBM) at    -10.38001101 eV
  | Occupation number:      2.00000000

  Lowest unoccupied state (CBM) at    -4.34767968 eV
  | Occupation number:      0.00000000

  Overall HOMO-LUMO gap:      6.03233133 eV.
  Calculating total energy contributions from superposition of free atom densities.

  Total energy components:
  | Sum of eigenvalues            :        -188.84303908 Ha       -5138.68054657 eV
  | XC energy correction          :         -41.79450450 Ha       -1137.28633206 eV
  | XC potential correction       :          53.72812884 Ha        1462.01677231 eV
  | Free-atom electrostatic energy:        -146.84501354 Ha       -3995.85612531 eV
  | Hartree energy correction     :           0.00000000 Ha           0.00000000 eV
  | vdW energy correction         :           0.00000000 Ha           0.00000000 eV
  | Entropy correction            :           0.00000000 Ha           0.00000000 eV
  | ---------------------------
  | Total energy                  :        -323.75442828 Ha       -8809.80623163 eV
  | Total energy, T -> 0          :        -323.75442828 Ha       -8809.80623163 eV  <-- do not rely on this value for anything but (periodic) metals
  | Electronic free energy        :        -323.75442828 Ha       -8809.80623163 eV

  Derived energy quantities:
  | Kinetic energy                :         320.51273172 Ha        8721.59517991 eV
  | Electrostatic energy          :        -602.47265550 Ha      -16394.11507948 eV
  | Energy correction for multipole
  | error in Hartree potential    :           0.00000000 Ha           0.00000000 eV
  | Sum of eigenvalues per atom                           :        -395.28311897 eV
  | Total energy (T->0) per atom                          :        -677.67740243 eV  <-- do not rely on this value for anything but (periodic) metals
  | Electronic free energy per atom                       :        -677.67740243 eV
  Initialize hartree_potential_storage
  Max. number of atoms included in rho_multipole:           13

  End scf initialization - timings             :  max(cpu_time)    wall_clock(cpu1)
  | Time for scf. initialization               :        1.164 s           1.166 s
  | Boundary condition initialization          :        0.000 s           0.000 s
  | Integration                                :        0.716 s           0.717 s
  | Solution of K.-S. eqns.                    :        0.004 s           0.004 s
  | Grid partitioning                          :        0.112 s           0.112 s
  | Preloading free-atom quantities on grid    :        0.002 s           0.003 s
  | Free-atom superposition energy             :        0.085 s           0.085 s
  | Total energy evaluation                    :        0.000 s           0.000 s

  Partial memory accounting:
  | Current value for overall tracked memory usage on task 0  :           0.165 MB
  | Peak value for overall tracked memory usage on task 0     :           0.678 MB after allocating wave
  | Largest tracked array allocation on task 0 so far         :           0.132 MB  when allocating H_times_psi
  Note:  These values currently only include a subset of arrays which are explicitly tracked.
  The "true" memory usage will be greater.
------------------------------------------------------------

------------------------------------------------------------
          Begin self-consistency iteration #    1

  Date     :  20200710, Time     :  150354.187
------------------------------------------------------------
  Evaluating new KS density.
  Integration grid: deviation in total charge (<rho> - N_e) =   7.105427E-15
  Pulay mixing of updated and previous charge densities.

  Evaluating partitioned Hartree potential by multipole expansion.
  | Analytical far-field extrapolation by fixed multipoles:
  | Hartree multipole sum: apparent total charge =  -0.735903E-04
  Summing up the Hartree potential.
  Time summed over all CPUs for potential: real work        0.284 s, elapsed        0.284 s
  | RMS charge density error from multipole expansion :   0.592396E-02

  Integrating Hamiltonian matrix: batch-based integration.
  Time summed over all CPUs for integration: real work        0.499 s, elapsed        0.499 s

  Updating Kohn-Sham eigenvalues and eigenvectors using ELSI and the ELPA eigensolver.
  Finished Cholesky decomposition
  | Time :     0.000 s
  Finished transformation to standard eigenproblem
  | Time :     0.000 s
  Starting LAPACK eigensolver
  Finished solving standard eigenproblem
  | Time :     0.002 s
  Finished back-transformation of eigenvectors
  | Time :     0.000 s

  Obtaining occupation numbers and chemical potential using ELSI.
  | Chemical potential (Fermi level):    -4.58019280eV
  Writing Kohn-Sham eigenvalues.

  State    Occupation    Eigenvalue [Ha]    Eigenvalue [eV]
      1       2.00000         -18.904005         -514.40414
      2       2.00000         -18.837753         -512.60134
      3       2.00000         -14.099769         -383.67424
      4       2.00000         -10.118632         -275.34200
      5       2.00000         -10.064843         -273.87832
      6       2.00000         -10.029987         -272.92984
      7       2.00000          -1.136251          -30.91895
      8       2.00000          -1.037663          -28.23626
      9       2.00000          -0.924065          -25.14508
     10       2.00000          -0.796525          -21.67454
     11       2.00000          -0.700263          -19.05513
     12       2.00000          -0.637126          -17.33709
     13       2.00000          -0.593657          -16.15424
     14       2.00000          -0.550685          -14.98490
     15       2.00000          -0.525691          -14.30479
     16       2.00000          -0.503382          -13.69773
     17       2.00000          -0.491515          -13.37480
     18       2.00000          -0.479022          -13.03485
     19       2.00000          -0.449777          -12.23905
     20       2.00000          -0.436190          -11.86934
     21       2.00000          -0.403036          -10.96716
     22       2.00000          -0.372527          -10.13697
     23       2.00000          -0.346641           -9.43258
     24       2.00000          -0.308401           -8.39201
     25       0.00000          -0.125209           -3.40711
     26       0.00000          -0.059581           -1.62129
     27       0.00000          -0.003683           -0.10021
     28       0.00000           0.012520            0.34068
     29       0.00000           0.042338            1.15207
     30       0.00000           0.053921            1.46728
     31       0.00000           0.061811            1.68196
     32       0.00000           0.071505            1.94574
     33       0.00000           0.084530            2.30017
     34       0.00000           0.106698            2.90341
     35       0.00000           0.122941            3.34539
     36       0.00000           0.164259            4.46971
     37       0.00000           0.177386            4.82691
     38       0.00000           0.237076            6.45117
     39       0.00000           0.246754            6.71451
     40       0.00000           0.263487            7.16984
     41       0.00000           0.284195            7.73334
     42       0.00000           0.302407            8.22891
     43       0.00000           0.325739            8.86382
     44       0.00000           0.340122            9.25520
     45       0.00000           0.352881            9.60239
     46       0.00000           0.392466           10.67955
     47       0.00000           0.408051           11.10363
     48       0.00000           0.419983           11.42831
     49       0.00000           0.477106           12.98271
     50       0.00000           0.512165           13.93671
     51       0.00000           0.550945           14.99197
     52       0.00000           0.568078           15.45818
     53       0.00000           0.593294           16.14436

  Highest occupied state (VBM) at     -8.39201431 eV
  | Occupation number:      2.00000000

  Lowest unoccupied state (CBM) at    -3.40711379 eV
  | Occupation number:      0.00000000

  Overall HOMO-LUMO gap:      4.98490052 eV.

  Total energy components:
  | Sum of eigenvalues            :        -185.49481507 Ha       -5047.57073567 eV
  | XC energy correction          :         -42.12257402 Ha       -1146.21355782 eV
  | XC potential correction       :          54.15478505 Ha        1473.62667861 eV
  | Free-atom electrostatic energy:        -146.84501354 Ha       -3995.85612531 eV
  | Hartree energy correction     :          -3.26158473 Ha         -88.75223630 eV
  | vdW energy correction         :           0.00000000 Ha           0.00000000 eV
  | Entropy correction            :           0.00000000 Ha           0.00000000 eV
  | ---------------------------
  | Total energy                  :        -323.56920231 Ha       -8804.76597649 eV
  | Total energy, T -> 0          :        -323.56920231 Ha       -8804.76597649 eV  <-- do not rely on this value for anything but (periodic) metals
  | Electronic free energy        :        -323.56920231 Ha       -8804.76597649 eV

  Derived energy quantities:
  | Kinetic energy                :         322.30698917 Ha        8770.41940928 eV
  | Electrostatic energy          :        -603.75361746 Ha      -16428.97182795 eV
  | Energy correction for multipole
  | error in Hartree potential    :           0.01205981 Ha           0.32816423 eV
  | Sum of eigenvalues per atom                           :        -388.27467197 eV
  | Total energy (T->0) per atom                          :        -677.28969050 eV  <-- do not rely on this value for anything but (periodic) metals
  | Electronic free energy per atom                       :        -677.28969050 eV

  Self-consistency convergence accuracy:
  | Change of charge density      :  0.5868E+00
  | Change of sum of eigenvalues  :  0.9111E+02 eV
  | Change of total energy        :  0.5040E+01 eV

  End self-consistency iteration #     1       :  max(cpu_time)    wall_clock(cpu1)
  | Time for this iteration                    :        1.197 s           1.198 s
  | Charge density update                      :        0.397 s           0.397 s
  | Density mixing                             :        0.005 s           0.006 s
  | Hartree multipole update                   :        0.009 s           0.009 s
  | Hartree multipole summation                :        0.285 s           0.285 s
  | Integration                                :        0.499 s           0.498 s
  | Solution of K.-S. eqns.                    :        0.002 s           0.003 s
  | Total energy evaluation                    :        0.000 s           0.000 s

  Partial memory accounting:
  | Current value for overall tracked memory usage on task 0  :           0.165 MB
  | Peak value for overall tracked memory usage on task 0     :           0.695 MB after allocating gradient_basis_wave
  | Largest tracked array allocation on task 0 so far         :           0.397 MB  when allocating gradient_basis_wave
  Note:  These values currently only include a subset of arrays which are explicitly tracked.
  The "true" memory usage will be greater.
------------------------------------------------------------

------------------------------------------------------------
          Begin self-consistency iteration #    2

  Date     :  20200710, Time     :  150355.386
------------------------------------------------------------
  Evaluating new KS density.
  Integration grid: deviation in total charge (<rho> - N_e) =   2.131628E-14
  Pulay mixing of updated and previous charge densities.

  Evaluating partitioned Hartree potential by multipole expansion.
  | Analytical far-field extrapolation by fixed multipoles:
  | Hartree multipole sum: apparent total charge =  -0.210846E-03
  Summing up the Hartree potential.
  Time summed over all CPUs for potential: real work        0.283 s, elapsed        0.283 s
  | RMS charge density error from multipole expansion :   0.139668E-01

  Integrating Hamiltonian matrix: batch-based integration.
  Time summed over all CPUs for integration: real work        0.499 s, elapsed        0.499 s

  Updating Kohn-Sham eigenvalues and eigenvectors using ELSI and the ELPA eigensolver.
  Finished Cholesky decomposition
  | Time :     0.000 s
  Finished transformation to standard eigenproblem
  | Time :     0.000 s
  Starting LAPACK eigensolver
  Finished solving standard eigenproblem
  | Time :     0.002 s
  Finished back-transformation of eigenvectors
  | Time :     0.000 s

  Obtaining occupation numbers and chemical potential using ELSI.
  | Chemical potential (Fermi level):    -3.50624057eV
  Highest occupied state (VBM) at     -6.45049216 eV
  | Occupation number:      2.00000000

  Lowest unoccupied state (CBM) at    -2.20195203 eV
  | Occupation number:      0.00000000

  Overall HOMO-LUMO gap:      4.24854013 eV.

  Checking to see if s.c.f. parameters should be adjusted.

  Total energy components:
  | Sum of eigenvalues            :        -182.00048940 Ha       -4952.48529633 eV
  | XC energy correction          :         -42.47753750 Ha       -1155.87260562 eV
  | XC potential correction       :          54.61484185 Ha        1486.14546094 eV
  | Free-atom electrostatic energy:        -146.84501354 Ha       -3995.85612531 eV
  | Hartree energy correction     :          -6.78121910 Ha        -184.52636039 eV
  | vdW energy correction         :           0.00000000 Ha           0.00000000 eV
  | Entropy correction            :           0.00000000 Ha           0.00000000 eV
  | ---------------------------
  | Total energy                  :        -323.48941770 Ha       -8802.59492671 eV
  | Total energy, T -> 0          :        -323.48941770 Ha       -8802.59492671 eV  <-- do not rely on this value for anything but (periodic) metals
  | Electronic free energy        :        -323.48941770 Ha       -8802.59492671 eV

  Derived energy quantities:
  | Kinetic energy                :         323.61389569 Ha        8805.98214511 eV
  | Electrostatic energy          :        -604.62577588 Ha      -16452.70446620 eV
  | Energy correction for multipole
  | error in Hartree potential    :           0.02633272 Ha           0.71654989 eV
  | Sum of eigenvalues per atom                           :        -380.96040741 eV
  | Total energy (T->0) per atom                          :        -677.12268667 eV  <-- do not rely on this value for anything but (periodic) metals
  | Electronic free energy per atom                       :        -677.12268667 eV

  Self-consistency convergence accuracy:
  | Change of charge density      :  0.3674E+00
  | Change of sum of eigenvalues  :  0.9509E+02 eV
  | Change of total energy        :  0.2171E+01 eV

  End self-consistency iteration #     2       :  max(cpu_time)    wall_clock(cpu1)
  | Time for this iteration                    :        1.196 s           1.197 s
  | Charge density update                      :        0.396 s           0.396 s
  | Density mixing                             :        0.007 s           0.007 s
  | Hartree multipole update                   :        0.008 s           0.008 s
  | Hartree multipole summation                :        0.283 s           0.284 s
  | Integration                                :        0.499 s           0.499 s
  | Solution of K.-S. eqns.                    :        0.002 s           0.003 s
  | Total energy evaluation                    :        0.000 s           0.000 s

  Partial memory accounting:
  | Current value for overall tracked memory usage on task 0  :           0.166 MB
  | Peak value for overall tracked memory usage on task 0     :           0.695 MB after allocating gradient_basis_wave
  | Largest tracked array allocation on task 0 so far         :           0.397 MB  when allocating gradient_basis_wave
  Note:  These values currently only include a subset of arrays which are explicitly tracked.
  The "true" memory usage will be greater.
------------------------------------------------------------

------------------------------------------------------------
          Begin self-consistency iteration #    3

  Date     :  20200710, Time     :  150356.584
------------------------------------------------------------
  Evaluating new KS density.
  Integration grid: deviation in total charge (<rho> - N_e) =   5.684342E-14
  Pulay mixing of updated and previous charge densities.

  Evaluating partitioned Hartree potential by multipole expansion.
  | Analytical far-field extrapolation by fixed multipoles:
  | Hartree multipole sum: apparent total charge =  -0.309535E-03
  Summing up the Hartree potential.
  Time summed over all CPUs for potential: real work        0.284 s, elapsed        0.284 s
  | RMS charge density error from multipole expansion :   0.219148E-01

  Integrating Hamiltonian matrix: batch-based integration.
  Time summed over all CPUs for integration: real work        0.499 s, elapsed        0.499 s

  Updating Kohn-Sham eigenvalues and eigenvectors using ELSI and the ELPA eigensolver.
  Finished Cholesky decomposition
  | Time :     0.000 s
  Finished transformation to standard eigenproblem
  | Time :     0.000 s
  Starting LAPACK eigensolver
  Finished solving standard eigenproblem
  | Time :     0.002 s
  Finished back-transformation of eigenvectors
  | Time :     0.000 s

  Obtaining occupation numbers and chemical potential using ELSI.
  | Chemical potential (Fermi level):    -2.87511421eV
  Highest occupied state (VBM) at     -5.77581036 eV
  | Occupation number:      2.00000000

  Lowest unoccupied state (CBM) at    -1.51250765 eV
  | Occupation number:      0.00000000

  Overall HOMO-LUMO gap:      4.26330271 eV.

  Total energy components:
  | Sum of eigenvalues            :        -180.66349252 Ha       -4916.10376007 eV
  | XC energy correction          :         -42.63271507 Ha       -1160.09520205 eV
  | XC potential correction       :          54.81283044 Ha        1491.53300469 eV
  | Free-atom electrostatic energy:        -146.84501354 Ha       -3995.85612531 eV
  | Hartree energy correction     :          -8.14771548 Ha        -221.71061872 eV
  | vdW energy correction         :           0.00000000 Ha           0.00000000 eV
  | Entropy correction            :           0.00000000 Ha           0.00000000 eV
  | ---------------------------
  | Total energy                  :        -323.47610617 Ha       -8802.23270145 eV
  | Total energy, T -> 0          :        -323.47610617 Ha       -8802.23270145 eV  <-- do not rely on this value for anything but (periodic) metals
  | Electronic free energy        :        -323.47610617 Ha       -8802.23270145 eV

  Derived energy quantities:
  | Kinetic energy                :         323.25348107 Ha        8796.17476445 eV
  | Electrostatic energy          :        -604.09687217 Ha      -16438.31226385 eV
  | Energy correction for multipole
  | error in Hartree potential    :           0.03710136 Ha           1.00957935 eV
  | Sum of eigenvalues per atom                           :        -378.16182770 eV
  | Total energy (T->0) per atom                          :        -677.09482319 eV  <-- do not rely on this value for anything but (periodic) metals
  | Electronic free energy per atom                       :        -677.09482319 eV

  Self-consistency convergence accuracy:
  | Change of charge density      :  0.2076E+00
  | Change of sum of eigenvalues  :  0.3638E+02 eV
  | Change of total energy        :  0.3622E+00 eV

  End self-consistency iteration #     3       :  max(cpu_time)    wall_clock(cpu1)
  | Time for this iteration                    :        1.191 s           1.198 s
  | Charge density update                      :        0.389 s           0.395 s
  | Density mixing                             :        0.008 s           0.009 s
  | Hartree multipole update                   :        0.009 s           0.009 s
  | Hartree multipole summation                :        0.284 s           0.284 s
  | Integration                                :        0.499 s           0.499 s
  | Solution of K.-S. eqns.                    :        0.002 s           0.002 s
  | Total energy evaluation                    :        0.000 s           0.000 s

  Partial memory accounting:
  | Current value for overall tracked memory usage on task 0  :           0.166 MB
  | Peak value for overall tracked memory usage on task 0     :           0.695 MB after allocating gradient_basis_wave
  | Largest tracked array allocation on task 0 so far         :           0.397 MB  when allocating gradient_basis_wave
  Note:  These values currently only include a subset of arrays which are explicitly tracked.
  The "true" memory usage will be greater.
------------------------------------------------------------

------------------------------------------------------------
          Begin self-consistency iteration #    4

  Date     :  20200710, Time     :  150357.783
------------------------------------------------------------
  Evaluating new KS density.
  Integration grid: deviation in total charge (<rho> - N_e) =  -3.552714E-14
  Pulay mixing of updated and previous charge densities.

  Evaluating partitioned Hartree potential by multipole expansion.
  | Analytical far-field extrapolation by fixed multipoles:
  | Hartree multipole sum: apparent total charge =  -0.343921E-03
  Summing up the Hartree potential.
  Time summed over all CPUs for potential: real work        0.284 s, elapsed        0.284 s
  | RMS charge density error from multipole expansion :   0.255059E-01

  Integrating Hamiltonian matrix: batch-based integration.
  Time summed over all CPUs for integration: real work        0.499 s, elapsed        0.499 s

  Updating Kohn-Sham eigenvalues and eigenvectors using ELSI and the ELPA eigensolver.
  Finished Cholesky decomposition
  | Time :     0.000 s
  Finished transformation to standard eigenproblem
  | Time :     0.000 s
  Starting LAPACK eigensolver
  Finished solving standard eigenproblem
  | Time :     0.002 s
  Finished back-transformation of eigenvectors
  | Time :     0.000 s

  Obtaining occupation numbers and chemical potential using ELSI.
  | Chemical potential (Fermi level):    -2.77082291eV
  Highest occupied state (VBM) at     -5.58570291 eV
  | Occupation number:      2.00000000

  Lowest unoccupied state (CBM) at    -1.41601682 eV
  | Occupation number:      0.00000000

  Overall HOMO-LUMO gap:      4.16968609 eV.

  Total energy components:
  | Sum of eigenvalues            :        -180.53690059 Ha       -4912.65901826 eV
  | XC energy correction          :         -42.67098810 Ha       -1161.13666417 eV
  | XC potential correction       :          54.86084627 Ha        1492.83958195 eV
  | Free-atom electrostatic energy:        -146.84501354 Ha       -3995.85612531 eV
  | Hartree energy correction     :          -8.28293040 Ha        -225.39000399 eV
  | vdW energy correction         :           0.00000000 Ha           0.00000000 eV
  | Entropy correction            :           0.00000000 Ha           0.00000000 eV
  | ---------------------------
  | Total energy                  :        -323.47498635 Ha       -8802.20222978 eV
  | Total energy, T -> 0          :        -323.47498635 Ha       -8802.20222978 eV  <-- do not rely on this value for anything but (periodic) metals
  | Electronic free energy        :        -323.47498635 Ha       -8802.20222978 eV

  Derived energy quantities:
  | Kinetic energy                :         322.84070336 Ha        8784.94251128 eV
  | Electrostatic energy          :        -603.64470161 Ha      -16426.00807689 eV
  | Energy correction for multipole
  | error in Hartree potential    :           0.04142581 Ha           1.12725368 eV
  | Sum of eigenvalues per atom                           :        -377.89684756 eV
  | Total energy (T->0) per atom                          :        -677.09247921 eV  <-- do not rely on this value for anything but (periodic) metals
  | Electronic free energy per atom                       :        -677.09247921 eV

  Self-consistency convergence accuracy:
  | Change of charge density      :  0.7012E-01
  | Change of sum of eigenvalues  :  0.3445E+01 eV
  | Change of total energy        :  0.3047E-01 eV

  End self-consistency iteration #     4       :  max(cpu_time)    wall_clock(cpu1)
  | Time for this iteration                    :        1.192 s           1.193 s
  | Charge density update                      :        0.389 s           0.389 s
  | Density mixing                             :        0.010 s           0.009 s
  | Hartree multipole update                   :        0.009 s           0.009 s
  | Hartree multipole summation                :        0.284 s           0.284 s
  | Integration                                :        0.499 s           0.499 s
  | Solution of K.-S. eqns.                    :        0.002 s           0.002 s
  | Total energy evaluation                    :        0.000 s           0.001 s

  Partial memory accounting:
  | Current value for overall tracked memory usage on task 0  :           0.166 MB
  | Peak value for overall tracked memory usage on task 0     :           0.696 MB after allocating gradient_basis_wave
  | Largest tracked array allocation on task 0 so far         :           0.397 MB  when allocating gradient_basis_wave
  Note:  These values currently only include a subset of arrays which are explicitly tracked.
  The "true" memory usage will be greater.
------------------------------------------------------------

------------------------------------------------------------
          Begin self-consistency iteration #    5

  Date     :  20200710, Time     :  150358.976
------------------------------------------------------------
  Evaluating new KS density.
  Integration grid: deviation in total charge (<rho> - N_e) =   1.421085E-14
  Pulay mixing of updated and previous charge densities.

  Evaluating partitioned Hartree potential by multipole expansion.
  | Analytical far-field extrapolation by fixed multipoles:
  | Hartree multipole sum: apparent total charge =  -0.337928E-03
  Summing up the Hartree potential.
  Time summed over all CPUs for potential: real work        0.284 s, elapsed        0.284 s
  | RMS charge density error from multipole expansion :   0.252584E-01

  Integrating Hamiltonian matrix: batch-based integration.
  Time summed over all CPUs for integration: real work        0.499 s, elapsed        0.499 s

  Updating Kohn-Sham eigenvalues and eigenvectors using ELSI and the ELPA eigensolver.
  Finished Cholesky decomposition
  | Time :     0.000 s
  Finished transformation to standard eigenproblem
  | Time :     0.000 s
  Starting LAPACK eigensolver
  Finished solving standard eigenproblem
  | Time :     0.002 s
  Finished back-transformation of eigenvectors
  | Time :     0.000 s

  Obtaining occupation numbers and chemical potential using ELSI.
  | Chemical potential (Fermi level):    -2.82583537eV
  Highest occupied state (VBM) at     -5.68564078 eV
  | Occupation number:      2.00000000

  Lowest unoccupied state (CBM) at    -1.50817949 eV
  | Occupation number:      0.00000000

  Overall HOMO-LUMO gap:      4.17746129 eV.

  Total energy components:
  | Sum of eigenvalues            :        -180.72573642 Ha       -4917.79750269 eV
  | XC energy correction          :         -42.64722244 Ha       -1160.48996770 eV
  | XC potential correction       :          54.83001898 Ha        1492.00072856 eV
  | Free-atom electrostatic energy:        -146.84501354 Ha       -3995.85612531 eV
  | Hartree energy correction     :          -8.08674131 Ha        -220.05142704 eV
  | vdW energy correction         :           0.00000000 Ha           0.00000000 eV
  | Entropy correction            :           0.00000000 Ha           0.00000000 eV
  | ---------------------------
  | Total energy                  :        -323.47469473 Ha       -8802.19429419 eV
  | Total energy, T -> 0          :        -323.47469473 Ha       -8802.19429419 eV  <-- do not rely on this value for anything but (periodic) metals
  | Electronic free energy        :        -323.47469473 Ha       -8802.19429419 eV

  Derived energy quantities:
  | Kinetic energy                :         322.73079477 Ha        8781.95174657 eV
  | Electrostatic energy          :        -603.55826706 Ha      -16423.65607305 eV
  | Energy correction for multipole
  | error in Hartree potential    :           0.04077985 Ha           1.10967615 eV
  | Sum of eigenvalues per atom                           :        -378.29211559 eV
  | Total energy (T->0) per atom                          :        -677.09186878 eV  <-- do not rely on this value for anything but (periodic) metals
  | Electronic free energy per atom                       :        -677.09186878 eV

  Self-consistency convergence accuracy:
  | Change of charge density      :  0.2114E-01
  | Change of sum of eigenvalues  : -0.5138E+01 eV
  | Change of total energy        :  0.7936E-02 eV

  End self-consistency iteration #     5       :  max(cpu_time)    wall_clock(cpu1)
  | Time for this iteration                    :        1.194 s           1.195 s
  | Charge density update                      :        0.389 s           0.389 s
  | Density mixing                             :        0.011 s           0.011 s
  | Hartree multipole update                   :        0.009 s           0.008 s
  | Hartree multipole summation                :        0.284 s           0.285 s
  | Integration                                :        0.499 s           0.499 s
  | Solution of K.-S. eqns.                    :        0.002 s           0.002 s
  | Total energy evaluation                    :        0.000 s           0.000 s

  Partial memory accounting:
  | Current value for overall tracked memory usage on task 0  :           0.166 MB
  | Peak value for overall tracked memory usage on task 0     :           0.696 MB after allocating gradient_basis_wave
  | Largest tracked array allocation on task 0 so far         :           0.397 MB  when allocating gradient_basis_wave
  Note:  These values currently only include a subset of arrays which are explicitly tracked.
  The "true" memory usage will be greater.
------------------------------------------------------------

------------------------------------------------------------
          Begin self-consistency iteration #    6

  Date     :  20200710, Time     :  150400.173
------------------------------------------------------------
  Evaluating new KS density.
  Integration grid: deviation in total charge (<rho> - N_e) =   1.421085E-14
  Pulay mixing of updated and previous charge densities.

  Evaluating partitioned Hartree potential by multipole expansion.
  | Analytical far-field extrapolation by fixed multipoles:
  | Hartree multipole sum: apparent total charge =  -0.341675E-03
  Summing up the Hartree potential.
  Time summed over all CPUs for potential: real work        0.284 s, elapsed        0.284 s
  | RMS charge density error from multipole expansion :   0.256912E-01

  Integrating Hamiltonian matrix: batch-based integration.
  Time summed over all CPUs for integration: real work        0.500 s, elapsed        0.500 s

  Updating Kohn-Sham eigenvalues and eigenvectors using ELSI and the ELPA eigensolver.
  Finished Cholesky decomposition
  | Time :     0.000 s
  Finished transformation to standard eigenproblem
  | Time :     0.000 s
  Starting LAPACK eigensolver
  Finished solving standard eigenproblem
  | Time :     0.002 s
  Finished back-transformation of eigenvectors
  | Time :     0.000 s

  Obtaining occupation numbers and chemical potential using ELSI.
  | Chemical potential (Fermi level):    -2.82621965eV
  Highest occupied state (VBM) at     -5.65662434 eV
  | Occupation number:      2.00000000

  Lowest unoccupied state (CBM) at    -1.52431241 eV
  | Occupation number:      0.00000000

  Overall HOMO-LUMO gap:      4.13231193 eV.

  Total energy components:
  | Sum of eigenvalues            :        -180.72561954 Ha       -4917.79432235 eV
  | XC energy correction          :         -42.64698151 Ha       -1160.48341173 eV
  | XC potential correction       :          54.82967230 Ha        1491.99129484 eV
  | Free-atom electrostatic energy:        -146.84501354 Ha       -3995.85612531 eV
  | Hartree energy correction     :          -8.08670214 Ha        -220.05036121 eV
  | vdW energy correction         :           0.00000000 Ha           0.00000000 eV
  | Entropy correction            :           0.00000000 Ha           0.00000000 eV
  | ---------------------------
  | Total energy                  :        -323.47464444 Ha       -8802.19292576 eV
  | Total energy, T -> 0          :        -323.47464444 Ha       -8802.19292576 eV  <-- do not rely on this value for anything but (periodic) metals
  | Electronic free energy        :        -323.47464444 Ha       -8802.19292576 eV

  Derived energy quantities:
  | Kinetic energy                :         322.65534543 Ha        8779.89866535 eV
  | Electrostatic energy          :        -603.48300835 Ha      -16421.60817938 eV
  | Energy correction for multipole
  | error in Hartree potential    :           0.04115653 Ha           1.11992606 eV
  | Sum of eigenvalues per atom                           :        -378.29187095 eV
  | Total energy (T->0) per atom                          :        -677.09176352 eV  <-- do not rely on this value for anything but (periodic) metals
  | Electronic free energy per atom                       :        -677.09176352 eV

  Self-consistency convergence accuracy:
  | Change of charge density      :  0.1089E-01
  | Change of sum of eigenvalues  :  0.3180E-02 eV
  | Change of total energy        :  0.1368E-02 eV

  End self-consistency iteration #     6       :  max(cpu_time)    wall_clock(cpu1)
  | Time for this iteration                    :        1.196 s           1.197 s
  | Charge density update                      :        0.389 s           0.389 s
  | Density mixing                             :        0.012 s           0.012 s
  | Hartree multipole update                   :        0.009 s           0.009 s
  | Hartree multipole summation                :        0.284 s           0.284 s
  | Integration                                :        0.500 s           0.500 s
  | Solution of K.-S. eqns.                    :        0.002 s           0.002 s
  | Total energy evaluation                    :        0.000 s           0.000 s

  Partial memory accounting:
  | Current value for overall tracked memory usage on task 0  :           0.166 MB
  | Peak value for overall tracked memory usage on task 0     :           0.696 MB after allocating gradient_basis_wave
  | Largest tracked array allocation on task 0 so far         :           0.397 MB  when allocating gradient_basis_wave
  Note:  These values currently only include a subset of arrays which are explicitly tracked.
  The "true" memory usage will be greater.
------------------------------------------------------------

------------------------------------------------------------
          Begin self-consistency iteration #    7

  Date     :  20200710, Time     :  150401.370
------------------------------------------------------------
  Evaluating new KS density.
  Integration grid: deviation in total charge (<rho> - N_e) =  -7.105427E-15
  Pulay mixing of updated and previous charge densities.

  Evaluating partitioned Hartree potential by multipole expansion.
  | Analytical far-field extrapolation by fixed multipoles:
  | Hartree multipole sum: apparent total charge =  -0.342477E-03
  Summing up the Hartree potential.
  Time summed over all CPUs for potential: real work        0.284 s, elapsed        0.284 s
  | RMS charge density error from multipole expansion :   0.257935E-01

  Integrating Hamiltonian matrix: batch-based integration.
  Time summed over all CPUs for integration: real work        0.499 s, elapsed        0.499 s

  Updating Kohn-Sham eigenvalues and eigenvectors using ELSI and the ELPA eigensolver.
  Finished Cholesky decomposition
  | Time :     0.000 s
  Finished transformation to standard eigenproblem
  | Time :     0.000 s
  Starting LAPACK eigensolver
  Finished solving standard eigenproblem
  | Time :     0.001 s
  Finished back-transformation of eigenvectors
  | Time :     0.000 s

[...]
  |   Hirshfeld dipole moment :      0.05664669
  |   Hirshfeld second moments:      0.01003845      -0.03178498      -0.01969586
  |                                 -0.03178498      -0.02107063       0.01001622
  |                                 -0.01969586       0.01001622      -0.01376401
  ----------------------------------------------------------------------
  | Atom    12: O
  |   Hirshfeld charge        :     -0.15392251
  |   Free atom volume        :     23.61338643
  |   Hirshfeld volume        :     20.93436182
  |   Hirshfeld dipole vector :      0.00683877       0.04386311       0.00301402
  |   Hirshfeld dipole moment :      0.04449523
  |   Hirshfeld second moments:      0.10550625      -0.01635191       0.01275272
  |                                 -0.01635191       0.03034359       0.00886631
  |                                  0.01275272       0.00886631       0.03557283
  ----------------------------------------------------------------------
  | Atom    13: H
  |   Hirshfeld charge        :      0.18073185
  |   Free atom volume        :      9.95071624
  |   Hirshfeld volume        :      6.15526600
  |   Hirshfeld dipole vector :     -0.11096431       0.05486879      -0.01115110
  |   Hirshfeld dipole moment :      0.12429002
  |   Hirshfeld second moments:      0.12418770      -0.00007490       0.00216717
  |                                 -0.00007490       0.10592266       0.01082436
  |                                  0.00216717       0.01082436       0.11629350
  ----------------------------------------------------------------------


  Total energy components:
  | Sum of eigenvalues            :        -180.72364129 Ha       -4917.74049137 eV
  | XC energy correction          :         -42.64394792 Ha       -1160.40086348 eV
  | XC potential correction       :          54.82582751 Ha        1491.88667281 eV
  | Free-atom electrostatic energy:        -146.84501354 Ha       -3995.85612531 eV
  | Hartree energy correction     :          -8.08784498 Ha        -220.08145958 eV
  | vdW energy correction         :          -0.00333232 Ha          -0.09067708 eV
  | Entropy correction            :           0.00000000 Ha           0.00000000 eV
  | ---------------------------
  | Total energy                  :        -323.47795255 Ha       -8802.28294402 eV
  | Total energy, T -> 0          :        -323.47795255 Ha       -8802.28294402 eV  <-- do not rely on this value for anything but (periodic) metals
  | Electronic free energy        :        -323.47795255 Ha       -8802.28294402 eV

  Derived energy quantities:
  | Kinetic energy                :         322.61930388 Ha        8778.91792506 eV
  | Electrostatic energy          :        -603.44997619 Ha      -16420.70932851 eV
  | Energy correction for multipole
  | error in Hartree potential    :           0.04119133 Ha           1.12087316 eV
  | Sum of eigenvalues per atom                           :        -378.28773011 eV
  | Total energy (T->0) per atom                          :        -677.09868800 eV  <-- do not rely on this value for anything but (periodic) metals
  | Electronic free energy per atom                       :        -677.09868800 eV

  atomic forces [eV/Ang]:
  -----------------------
  atom #    1
   Hellmann-Feynman              :  0.201472E+00  0.664359E-02  0.100962E+01
   Ionic forces                  :  0.000000E+00  0.000000E+00  0.000000E+00
   Multipole                     :  0.193635E-01  0.120554E+00 -0.202136E+00
   Pulay + GGA                   : -0.743002E+00  0.837005E-01 -0.135500E+01
   Van der Waals                 :  0.397561E-02  0.272451E-02 -0.134133E-02
   ----------------------------------------------------------------
   Total forces(   1)            : -0.518191E+00  0.213622E+00 -0.548855E+00
  atom #    2
   Hellmann-Feynman              :  0.228915E+00  0.175393E-01 -0.463623E-01
   Ionic forces                  :  0.000000E+00  0.000000E+00  0.000000E+00
   Multipole                     :  0.190666E+00  0.142854E-01  0.142213E-01
   Pulay + GGA                   : -0.146182E+00  0.201418E-01  0.443873E-01
   Van der Waals                 :  0.321063E-02 -0.469592E-02 -0.652704E-02
   ----------------------------------------------------------------
   Total forces(   2)            :  0.276609E+00  0.472705E-01  0.571925E-02
  atom #    3
   Hellmann-Feynman              : -0.253836E+01  0.109865E+02 -0.155817E+01
   Ionic forces                  :  0.000000E+00  0.000000E+00  0.000000E+00
   Multipole                     : -0.310559E+00  0.238071E+00 -0.104717E+01
   Pulay + GGA                   :  0.335656E+01 -0.105252E+02  0.318131E+01
   Van der Waals                 :  0.604874E-02 -0.250556E-02 -0.106802E-01
   ----------------------------------------------------------------
   Total forces(   3)            :  0.513693E+00  0.696884E+00  0.565293E+00
  atom #    4
   Hellmann-Feynman              : -0.184268E+00 -0.365039E+00 -0.139262E+00
   Ionic forces                  :  0.000000E+00  0.000000E+00  0.000000E+00
   Multipole                     :  0.359677E-01 -0.408932E-01 -0.105999E+00
   Pulay + GGA                   : -0.157489E+00  0.148153E+00  0.107038E+00
   Van der Waals                 : -0.419769E-02  0.194501E-02  0.316304E-02
   ----------------------------------------------------------------
   Total forces(   4)            : -0.309987E+00 -0.255834E+00 -0.135060E+00
  atom #    5
   Hellmann-Feynman              :  0.926952E-01 -0.184513E+00 -0.382294E+00
   Ionic forces                  :  0.000000E+00  0.000000E+00  0.000000E+00
   Multipole                     : -0.655950E-01 -0.608704E-01 -0.723914E-01
   Pulay + GGA                   :  0.207210E+00  0.188416E+00 -0.649592E-01
   Van der Waals                 :  0.715558E-05  0.171886E-02 -0.528314E-03
   ----------------------------------------------------------------
   Total forces(   5)            :  0.234317E+00 -0.552489E-01 -0.520173E+00
  atom #    6
   Hellmann-Feynman              :  0.351422E+00 -0.405587E+00  0.492440E+00
   Ionic forces                  :  0.000000E+00  0.000000E+00  0.000000E+00
   Multipole                     : -0.128871E+00  0.626870E+00  0.235314E+00
   Pulay + GGA                   :  0.341996E-03 -0.541866E+00 -0.563604E+00
   Van der Waals                 : -0.258068E-02  0.514922E-02 -0.361656E-02
   ----------------------------------------------------------------
   Total forces(   6)            :  0.220312E+00 -0.315433E+00  0.160534E+00
  atom #    7
   Hellmann-Feynman              : -0.243865E+00 -0.410064E-01 -0.442663E-01
   Ionic forces                  :  0.000000E+00  0.000000E+00  0.000000E+00
   Multipole                     : -0.116648E+00  0.510011E-01  0.235080E-01
   Pulay + GGA                   :  0.115860E+00  0.467281E-01  0.268404E-02
   Van der Waals                 : -0.204748E-02 -0.154272E-02  0.202611E-02
   ----------------------------------------------------------------
   Total forces(   7)            : -0.246701E+00  0.551801E-01 -0.160482E-01
  atom #    8
   Hellmann-Feynman              :  0.395514E-01 -0.590484E-01  0.177402E+00
   Ionic forces                  :  0.000000E+00  0.000000E+00  0.000000E+00
   Multipole                     :  0.178308E-01  0.670600E-01  0.124078E+00
   Pulay + GGA                   : -0.386824E-01 -0.362161E-01 -0.877883E-01
   Van der Waals                 : -0.299610E-02  0.111232E-01  0.142301E-02
   ----------------------------------------------------------------
   Total forces(   8)            :  0.157037E-01 -0.170812E-01  0.215114E+00
  atom #    9
   Hellmann-Feynman              :  0.649727E-01  0.125801E-01 -0.179800E+00
   Ionic forces                  :  0.000000E+00  0.000000E+00  0.000000E+00
   Multipole                     :  0.161382E-01  0.131583E+00 -0.122024E-01
   Pulay + GGA                   : -0.579902E-01 -0.107024E+00  0.234286E-01
   Van der Waals                 : -0.239912E-02  0.215071E-02  0.340735E-02
   ----------------------------------------------------------------
   Total forces(   9)            :  0.207216E-01  0.392902E-01 -0.165166E+00
  atom #   10
   Hellmann-Feynman              :  0.344762E+01  0.538579E+01  0.246946E+01
   Ionic forces                  :  0.000000E+00  0.000000E+00  0.000000E+00
   Multipole                     :  0.841051E-01 -0.236627E-01  0.226595E+00
   Pulay + GGA                   : -0.122448E+01 -0.354375E+01 -0.423343E+00
   Van der Waals                 :  0.251253E-02 -0.146241E-01  0.558977E-02
   ----------------------------------------------------------------
   Total forces(  10)            :  0.230976E+01  0.180376E+01  0.227830E+01
  atom #   11
   Hellmann-Feynman              :  0.376215E+01 -0.229412E+01  0.139660E+02
   Ionic forces                  :  0.000000E+00  0.000000E+00  0.000000E+00
   Multipole                     :  0.941424E-01 -0.543319E+00  0.708112E+00
   Pulay + GGA                   : -0.289780E+01  0.331924E+01 -0.138400E+02
   Van der Waals                 : -0.327448E-04 -0.120327E-01  0.466231E-02
   ----------------------------------------------------------------
   Total forces(  11)            :  0.958461E+00  0.469764E+00  0.838770E+00
  atom #   12
   Hellmann-Feynman              :  0.350870E+00 -0.147654E+02 -0.512105E+01
   Ionic forces                  :  0.000000E+00  0.000000E+00  0.000000E+00
   Multipole                     : -0.704550E+00 -0.147713E+01 -0.220954E+00
   Pulay + GGA                   : -0.225993E+01  0.141442E+02  0.348756E+01
   Van der Waals                 :  0.180302E-02  0.657655E-02  0.320836E-02
   ----------------------------------------------------------------
   Total forces(  12)            : -0.261181E+01 -0.209181E+01 -0.185123E+01
  atom #   13
   Hellmann-Feynman              : -0.109935E+01 -0.312016E+00 -0.970792E+00
   Ionic forces                  :  0.000000E+00  0.000000E+00  0.000000E+00
   Multipole                     : -0.798317E-01  0.277877E-01  0.229004E-01
   Pulay + GGA                   :  0.314373E+00 -0.309361E+00  0.116244E+00
   Van der Waals                 : -0.330388E-02  0.401295E-02 -0.786541E-03
   ----------------------------------------------------------------
   Total forces(  13)            : -0.868115E+00 -0.589576E+00 -0.832434E+00

  Timings for VdW correction (Tkatchenko-Scheffler 2009 or later):
  | CPU time:        0.090 s, Wall clock time:        0.091 s.
  Removing unitary transformations (pure translations, rotations) from forces on atoms.
  Atomic forces before filtering:
  | Net force on center of mass :  -0.522319E-02  0.790046E-03 -0.523798E-02 eV/A
  | Net torque on center of mass:  -0.743259E-03  0.145734E-02 -0.149001E-01 eV
  Atomic forces after filtering:
  | Net force on center of mass :  -0.178406E-15  0.446015E-15  0.535218E-15 eV/A
  | Net torque on center of mass:   0.861477E-15 -0.188817E-15 -0.264344E-14 eV

  Energy and forces in a compact form:
  | Total energy uncorrected      :         -0.880228294401571E+04 eV
  | Total energy corrected        :         -0.880228294401571E+04 eV  <-- do not rely on this value for anything but (periodic) metals
  | Electronic free energy        :         -0.880228294401571E+04 eV
  Total atomic forces (unitary forces cleaned) [eV/Ang]:
  |   1         -0.517849332559262E+00          0.213809246935269E+00         -0.548445246347829E+00
  |   2          0.276950279405718E+00          0.480180160411832E-01          0.613743461421781E-02
  |   3          0.514045186491551E+00          0.696858120677992E+00          0.565698525260936E+00
  |   4         -0.309469527548803E+00         -0.255456426003833E+00         -0.134655025058253E+00
  |   5          0.234995758588405E+00         -0.556799176055787E-01         -0.519788492577181E+00
  |   6          0.220000848031793E+00         -0.315516829315468E+00          0.160968206523722E+00
  |   7         -0.247026046589994E+00          0.545359519299037E-01         -0.156216713162705E-01
  |   8          0.153778044823499E-01         -0.170033559993323E-01          0.215551933874380E+00
  |   9          0.199533525685798E-01          0.394033834054218E-01         -0.164708359936579E+00
  |  10          0.231075617127690E+01          0.180372607796823E+01          0.227867508244529E+01
  |  11          0.959589418730380E+00          0.469855372279380E+00          0.839142883572437E+00
  |  12         -0.261037034607829E+01         -0.209218564484169E+01         -0.185087842942726E+01
  |  13         -0.866953566799320E+00         -0.590363995471470E+00         -0.832076841627615E+00

  ------------------------------------ 
  Start decomposition of the XC Energy 
  ------------------------------------ 
  X and C from original XC functional choice 
  Hartree-Fock Energy :          0.000000000 Ha              0.000000000 eV
  X Energy            :        -41.042402320 Ha          -1116.820590333 eV
  C Energy            :         -1.601545601 Ha            -43.580273146 eV
  Total XC Energy     :        -42.643947921 Ha          -1160.400863479 eV
  ------------------------------------ 
  LDA X and C from self-consistent density 
  X Energy LDA        :        -37.262037036 Ha          -1013.951617034 eV
  C Energy LDA        :         -3.139034045 Ha            -85.417462356 eV
  ------------------------------------ 
  End decomposition of the XC Energy 
  ------------------------------------ 

------------------------------------------------------------

------------------------------------------------------------------------------
  Final output of selected total energy values:

  The following output summarizes some interesting total energy values
  at the end of a run (AFTER all relaxation, molecular dynamics, etc.).

  | Total energy of the DFT / Hartree-Fock s.c.f. calculation      :          -8802.282944016 eV
  | Final zero-broadening corrected energy (caution - metals only) :          -8802.282944016 eV
  | For reference only, the value of 1 Hartree used in FHI-aims is :             27.211384500 eV

  Before relying on these values, please be sure to understand exactly which
  total energy value is referred to by a given number. Different objects may
  all carry the same name 'total energy'. Definitions:

  Total energy of the DFT / Hartree-Fock s.c.f. calculation:
  | Note that this energy does not include ANY quantities calculated after the
  | s.c.f. cycle, in particular not ANY RPA, MP2, etc. many-body perturbation terms.

  Final zero-broadening corrected energy:
  | For metallic systems only, a broadening of the occupation numbers at the Fermi
  | level can be extrapolated back to zero broadening by an electron-gas inspired
  | formula. For all systems that are not real metals, this value can be
  | meaningless and should be avoided.

------------------------------------------------------------------------------
  Methods described in the following list of references were used in this FHI-aims run.
  If you publish the results, please make sure to cite these reference if they apply.
  FHI-aims is an academic code, and for our developers (often, Ph.D. students
  and postdocs), scientific credit in the community is essential.
  Thank you for helping us!

  For any use of FHI-aims, please cite:

    Volker Blum, Ralf Gehrke, Felix Hanke, Paula Havu, Ville Havu,
    Xinguo Ren, Karsten Reuter, and Matthias Scheffler
    'Ab initio molecular simulations with numeric atom-centered orbitals'
    Computer Physics Communications 180, 2175-2196 (2009)
    http://dx.doi.org/10.1016/j.cpc.2009.06.022


  The scalable eigensolver library ELPA was used in your run.
  ELPA is essential especially for large systems on hundreds or thousands of CPUs.
  For ELPA, please cite:

    Andreas Marek, Volker Blum, Rainer Johanni, Ville Havu, Bruno Lang,
    Thomas Auckenthaler, Alexander Heinecke, Hans-Joachim Bungartz, and Hermann Lederer,
    'The ELPA Library - Scalable Parallel Eigenvalue Solutions
    for Electronic Structure Theory and Computational Science'
    The Journal of Physics: Condensed Matter 26, 213201 (2014).
    http://dx.doi.org/10.1088/0953-8984/26/21/213201


  The ELSI infrastructure was used in your run to solve the Kohn-Sham electronic structure.
  Please check out http://elsi-interchange.org to learn more.
  If scalability is important for your project, please acknowledge ELSI by citing:

    V. W-z. Yu, F. Corsetti, A. Garcia, W. P. Huhn, M. Jacquelin, W. Jia,
    B. Lange, L. Lin, J. Lu, W. Mi, A. Seifitokaldani, A. Vazquez-Mayagoitia,
    C. Yang, H. Yang, and V. Blum
    'ELSI: A unified software interface for Kohn-Sham electronic structure solvers'
    Computer Physics Communications 222, 267-285 (2018).
    http://dx.doi.org/10.1016/j.cpc.2017.09.007


  For the real-space grid partitioning and parallelization used in this calculation, please cite:

    Ville Havu, Volker Blum, Paula Havu, and Matthias Scheffler,
    'Efficient O(N) integration for all-electron electronic structure calculation'
    'using numerically tabulated basis functions'
    Journal of Computational Physics 228, 8367-8379 (2009).
    http://dx.doi.org/10.1016/j.jcp.2009.08.008

  Of course, there are many other important community references, e.g., those cited in the
  above references. Our list is limited to references that describe implementations in the
  FHI-aims code. The reason is purely practical (length of this list) - please credit others as well.

------------------------------------------------------------
          Leaving FHI-aims.
          Date     :  20200710, Time     :  150415.732

          Computational steps:
          | Number of self-consistency cycles          :           16
          | Number of SCF (re)initializations          :            1

          Detailed time accounting                     :  max(cpu_time)    wall_clock(cpu1)
          | Total time                                 :       22.820 s          22.874 s
          | Preparation time                           :        0.148 s           0.148 s
          | Boundary condition initalization           :        0.000 s           0.000 s
          | Grid partitioning                          :        0.112 s           0.112 s
          | Preloading free-atom quantities on grid    :        0.002 s           0.003 s
          | Free-atom superposition energy             :        0.085 s           0.085 s
          | Total time for integrations                :        8.699 s           8.704 s
          | Total time for solution of K.-S. equations :        0.037 s           0.040 s
          | Total time for density & force components  :        7.191 s           7.210 s
          | Total time for mixing                      :        0.217 s           0.218 s
          | Total time for Hartree multipole update    :        0.139 s           0.139 s
          | Total time for Hartree multipole sum       :        5.786 s           5.797 s
          | Total time for total energy evaluation     :        0.003 s           0.003 s
          | Total time for vdW correction              :        0.090 s           0.091 s

          Partial memory accounting:
          | Residual value for overall tracked memory usage across tasks :           0.000 MB (should be 0.000 MB)
          | Peak values for overall tracked memory usage (after allocating hessian_basis_wave):
          |   Minimum:        1.622 MB (on task 1)
          |   Maximum:        1.622 MB (on task 1)
          |   Average:        1.622 MB
          | Largest tracked array allocation (hessian_basis_wave):
          |   Minimum:        0.794 MB (on task 1)
          |   Maximum:        0.794 MB (on task 1)
          |   Average:        0.794 MB
          Note:  These values currently only include a subset of arrays which are explicitly tracked.
          The "true" memory usage will be greater.

          Have a nice day.
------------------------------------------------------------
