  MPI-parallelism will be employed.
------------------------------------------------------------
          Invoking FHI-aims ...
          Version 171221_1
          Compiled on 2019/09/09 at 14:39:39 on host puhti-login2.bullx.

          When using FHI-aims, please cite the following reference:

          Volker Blum, Ralf Gehrke, Felix Hanke, Paula Havu,
          Ville Havu, Xinguo Ren, Karsten Reuter, and Matthias Scheffler,
          'Ab Initio Molecular Simulations with Numeric Atom-Centered Orbitals',
          Computer Physics Communications 180, 2175-2196 (2009)

          For any questions about FHI-aims, please visit the aimsclub website
          with its forums and wiki. Contributions to both the forums and the
          wiki are warmly encouraged - they are for you, and everyone is welcome there.

------------------------------------------------------------



  Date     :  20200710, Time     :  151448.445
  Time zero on CPU 1             :   0.120000000000000E-01  s.
  Internal wall clock time zero  :           363626088.445  s.

  FHI-aims created a unique identifier for this run for later identification
  aims_uuid : 0A2A0576-9A37-45F2-A1EA-F50B45524178

  Using        1 parallel tasks.
  Task        0 on host r18c46.bullx reporting.

  Performing system and environment tests:
  | Environment variable OMP_NUM_THREADS correctly set to 1.
  | Stacksize not measured: no C compiler
  | Checking for scalapack...
  | Testing pdtran()...
  | All pdtran() tests passed.

  Obtaining array dimensions for all initial allocations:
  
  -----------------------------------------------------------------------
  Parsing control.in (first pass over file, find array dimensions only).
  The contents of control.in will be repeated verbatim below
  unless switched off by setting 'verbatim_writeout .false.' .
  in the first line of control.in .
  -----------------------------------------------------------------------
  
  #########################################################################################
  #
  #  Volker Blum, FHI 2009 : Test run input file control.in for simple H2O
  #
  #########################################################################################
  #
  #  Physical model
  #
    xc                 pbe
    vdw_correction_hirshfeld
    spin               none
    relativistic       none
    charge             0.
  #
  #  SCF convergence
  #
    occupation_type    gaussian 0.01
    mixer              pulay
      n_max_pulay        10
      charge_mix_param   0.2
    sc_accuracy_rho    1E-5
    sc_accuracy_eev    1E-3
    sc_accuracy_etot   1E-6
    sc_accuracy_forces 1E-4
    sc_iter_limit      100
  #
  #  Relaxation
  #
  #  relax_geometry   bfgs 1.e-3
  #
  ################################################################################
  #
  #  FHI-aims code project
  #  VB, Fritz-Haber Institut, 2009
  #
  #  Suggested "light" defaults for H atom (to be pasted into control.in file)
  #  Be sure to double-check any results obtained with these settings for post-processing,
  #  e.g., with the "tight" defaults and larger basis sets.
  #
  ################################################################################
    species        H
  #     global species definitions
      nucleus             1
      mass                1.00794
  #
      l_hartree           4
  #
      cut_pot             3.5  1.5  1.0
      basis_dep_cutoff    1e-4
  #
      radial_base         24 5.0
      radial_multiplier   1
      angular_grids       specified
        division   0.2421   50
        division   0.3822  110
        division   0.4799  194
        division   0.5341  302
  #      division   0.5626  434
  #      division   0.5922  590
  #      division   0.6542  770
  #      division   0.6868 1202
  #      outer_grid  770
        outer_grid  302
  ################################################################################
  #
  #  Definition of "minimal" basis
  #
  ################################################################################
  #     valence basis states
      valence      1  s   1.
  #     ion occupancy
      ion_occ      1  s   0.5
  ################################################################################
  #
  #  Suggested additional basis functions. For production calculations,
  #  uncomment them one after another (the most important basis functions are
  #  listed first).
  #
  #  Basis constructed for dimers: 0.5 A, 0.7 A, 1.0 A, 1.5 A, 2.5 A
  #
  ################################################################################
  #  "First tier" - improvements: -1014.90 meV to -62.69 meV
       hydro 2 s 2.1
       hydro 2 p 3.5
  #  "Second tier" - improvements: -12.89 meV to -1.83 meV
  #     hydro 1 s 0.85
  #     hydro 2 p 3.7
  #     hydro 2 s 1.2
  #     hydro 3 d 7
  #  "Third tier" - improvements: -0.25 meV to -0.12 meV
  #     hydro 4 f 11.2
  #     hydro 3 p 4.8
  #     hydro 4 d 9
  #     hydro 3 s 3.2
  ################################################################################
  #
  #  FHI-aims code project
  #  VB, Fritz-Haber Institut, 2009
  #
  #  Suggested "light" defaults for C atom (to be pasted into control.in file)
  #  Be sure to double-check any results obtained with these settings for post-processing,
  #  e.g., with the "tight" defaults and larger basis sets.
  #
  ################################################################################
    species        C
  #     global species definitions
      nucleus             6
      mass                12.0107
  #
      l_hartree           4
  #
      cut_pot             3.5  1.5  1.0
      basis_dep_cutoff    1e-4
  #
      radial_base         34 5.0
      radial_multiplier   1
      angular_grids specified
        division   0.3326   50
        division   0.5710  110
        division   0.7727  194
        division   0.8772  302
  #      division   0.9334  434
  #      division   0.9625  590
  #      division   0.9924  770
  #      division   1.0230  974
  #      division   1.4589 1202
  #     outer_grid  974
       outer_grid 302
  ################################################################################
  #
  #  Definition of "minimal" basis
  #
  ################################################################################
  #     valence basis states
      valence      2  s   2.
      valence      2  p   2.
  #     ion occupancy
      ion_occ      2  s   1.
      ion_occ      2  p   1.
  ################################################################################
  #
  #  Suggested additional basis functions. For production calculations,
  #  uncomment them one after another (the most important basis functions are
  #  listed first).
  #
  #  Constructed for dimers: 1.0 A, 1.25 A, 1.5 A, 2.0 A, 3.0 A
  #
  ################################################################################
  #  "First tier" - improvements: -1214.57 meV to -155.61 meV
       hydro 2 p 1.7
       hydro 3 d 6
       hydro 2 s 4.9
  #  "Second tier" - improvements: -67.75 meV to -5.23 meV
  #     hydro 4 f 9.8
  #     hydro 3 p 5.2
  #     hydro 3 s 4.3
  #     hydro 5 g 14.4
  #     hydro 3 d 6.2
  #  "Third tier" - improvements: -2.43 meV to -0.60 meV
  #     hydro 2 p 5.6
  #     hydro 2 s 1.4
  #     hydro 3 d 4.9
  #     hydro 4 f 11.2
  #  "Fourth tier" - improvements: -0.39 meV to -0.18 meV
  #     hydro 2 p 2.1
  #     hydro 5 g 16.4
  #     hydro 4 d 13.2
  #     hydro 3 s 13.6
  #     hydro 4 f 17.6
  #  Further basis functions - improvements: -0.08 meV and below
  #     hydro 3 s 2
  #     hydro 3 p 6
  #     hydro 4 d 20
  ################################################################################
  #
  #  FHI-aims code project
  #  VB, Fritz-Haber Institut, 2009
  #
  #  Suggested "light" defaults for N atom (to be pasted into control.in file)
  #  Be sure to double-check any results obtained with these settings for post-processing,
  #  e.g., with the "tight" defaults and larger basis sets.
  #
  ################################################################################
    species        N
  #     global species definitions
      nucleus             7
      mass                14.0067
  #
      l_hartree           4
  #
      cut_pot             3.5  1.5  1.0
      basis_dep_cutoff    1e-4
  #
      radial_base         35 5.0
      radial_multiplier   1
      angular_grids       specified
        division   0.2599   50
        division   0.4601  110
        division   0.5885  194
        division   0.6503  302
  #      division   0.6939  434
  #      division   0.7396  590
  #      division   0.7632  770
  #      division   0.8122  974
  #      division   1.1604 1202
  #      outer_grid  974
        outer_grid  302
  ################################################################################
  #
  #  Definition of "minimal" basis
  #
  ################################################################################
  #     valence basis states
      valence      2  s   2.
      valence      2  p   3.
  #     ion occupancy
      ion_occ      2  s   1.
      ion_occ      2  p   2.
  ################################################################################
  #
  #  Suggested additional basis functions. For production calculations,
  #  uncomment them one after another (the most important basis functions are
  #  listed first).
  #
  #  Constructed for dimers: 1.0 A, 1.1 A, 1.5 A, 2.0 A, 3.0 A
  #
  ################################################################################
  #  "First tier" - improvements: -1193.42 meV to -220.60 meV
       hydro 2 p 1.8
       hydro 3 d 6.8
       hydro 3 s 5.8
  #  "Second tier" - improvements: -80.21 meV to -6.86 meV
  #     hydro 4 f 10.8
  #     hydro 3 p 5.8
  #     hydro 1 s 0.8
  #     hydro 5 g 16
  #     hydro 3 d 4.9
  #  "Third tier" - improvements: -4.29 meV to -0.53 meV
  #     hydro 3 s 16
  #     ionic 2 p auto
  #     hydro 3 d 6.6
  #     hydro 4 f 11.6
  #  "Fourth tier" - improvements: -0.75 meV to -0.25 meV
  #     hydro 2 p 4.5
  #     hydro 2 s 2.4
  #     hydro 5 g 14.4
  #     hydro 4 d 14.4
  #     hydro 4 f 16.8
  # Further basis functions - -0.21 meV and below
  #     hydro 3 p 14.8
  #     hydro 3 s 4.4
  #     hydro 3 d 19.6
  #     hydro 5 g 12.8
  ################################################################################
  #
  #  FHI-aims code project
  #  VB, Fritz-Haber Institut, 2009
  #
  #  Suggested "light" defaults for O atom (to be pasted into control.in file)
  #  Be sure to double-check any results obtained with these settings for post-processing,
  #  e.g., with the "tight" defaults and larger basis sets.
  #
  ################################################################################
    species        O
  #     global species definitions
      nucleus             8
      mass                15.9994
  #
      l_hartree           4
  #
      cut_pot             3.5  1.5  1.0
      basis_dep_cutoff    1e-4
  #
      radial_base         36 5.0
      radial_multiplier   1
       angular_grids specified
        division   0.2659   50
        division   0.4451  110
        division   0.6052  194
        division   0.7543  302
  #      division   0.8014  434
  #      division   0.8507  590
  #      division   0.8762  770
  #      division   0.9023  974
  #      division   1.2339 1202
  #      outer_grid 974
        outer_grid 302
  ################################################################################
  #
  #  Definition of "minimal" basis
  #
  ################################################################################
  #     valence basis states
      valence      2  s   2.
      valence      2  p   4.
  #     ion occupancy
      ion_occ      2  s   1.
      ion_occ      2  p   3.
  ################################################################################
  #
  #  Suggested additional basis functions. For production calculations,
  #  uncomment them one after another (the most important basis functions are
  #  listed first).
  #
  #  Constructed for dimers: 1.0 A, 1.208 A, 1.5 A, 2.0 A, 3.0 A
  #
  ################################################################################
  #  "First tier" - improvements: -699.05 meV to -159.38 meV
       hydro 2 p 1.8
       hydro 3 d 7.6
       hydro 3 s 6.4
  #  "Second tier" - improvements: -49.91 meV to -5.39 meV
  #     hydro 4 f 11.6
  #     hydro 3 p 6.2
  #     hydro 3 d 5.6
  #     hydro 5 g 17.6
  #     hydro 1 s 0.75
  #  "Third tier" - improvements: -2.83 meV to -0.50 meV
  #     ionic 2 p auto
  #     hydro 4 f 10.8
  #     hydro 4 d 4.7
  #     hydro 2 s 6.8
  #  "Fourth tier" - improvements: -0.40 meV to -0.12 meV
  #     hydro 3 p 5
  #     hydro 3 s 3.3
  #     hydro 5 g 15.6
  #     hydro 4 f 17.6
  #     hydro 4 d 14
  # Further basis functions - -0.08 meV and below
  #     hydro 3 s 2.1
  #     hydro 4 d 11.6
  #     hydro 3 p 16
  #     hydro 2 s 17.2
  
  -----------------------------------------------------------------------
  Completed first pass over input file control.in .
  -----------------------------------------------------------------------
  
  
  -----------------------------------------------------------------------
  Parsing geometry.in (first pass over file, find array dimensions only).
  The contents of geometry.in will be repeated verbatim below
  unless switched off by setting 'verbatim_writeout .false.' .
  in the first line of geometry.in .
  -----------------------------------------------------------------------
  
  atom  0.00000 0.00000 0.00000 C
  atom  1.09300 0.00000 0.00000 H
  atom  -0.47961 0.00000 -1.41207 N
  atom  -1.11406 0.78893 -1.54202 H
  atom  0.32413 0.08933 -2.03026 H
  atom  -0.49584 1.26211 0.72868 C
  atom  -1.58789 1.28919 0.74431 H
  atom  -0.13407 1.27425 1.75947 H
  atom  -0.13407 2.16087 0.22380 H
  atom  -0.39425 -1.28861 0.74398 C
  atom  -0.10189 -1.56493 1.88303 O
  atom  -1.10210 -2.13717 0.06896 O
  atom  -1.98361 -1.85363 0.36482 H
  
  -----------------------------------------------------------------------
  Completed first pass over input file geometry.in .
  -----------------------------------------------------------------------
  

  Basic array size parameters:
  | Number of species                 :        4
  | Number of atoms                   :       13
  | Max. basis fn. angular momentum   :        2
  | Max. atomic/ionic basis occupied n:        2
  | Max. number of basis fn. types    :        2
  | Max. radial fns per species/type  :        3
  | Max. logarithmic grid size        :     1301
  | Max. radial integration grid size :       36
  | Max. angular integration grid size:      302
  | Max. angular grid division number :        8
  | Radial grid for Hartree potential :     1301
  | Number of spin channels           :        1

------------------------------------------------------------
          Reading file control.in.
------------------------------------------------------------
  XC: Using PBE gradient-corrected functionals.
  Spin treatment: No spin polarisation.
  Non-relativistic treatment of kinetic energy.
  Charge =   0.000000E+00: Neutral system requested explicitly.
  Occupation type: Gaussian broadening, width =   0.100000E-01 eV.
  Using pulay charge density mixing.
  Pulay mixing - number of memorized iterations:   10
  Charge density mixing - mixing parameter:     0.2000
  Convergence accuracy of self-consistent charge density:  0.1000E-04
  Convergence accuracy of sum of eigenvalues:  0.1000E-02
  Convergence accuracy of total energy:  0.1000E-05
  Convergence accuracy of forces:  0.1000E-03
  Maximum number of s.-c. iterations  :   100
 
  Reading configuration options for species H                   .
  | Found nuclear charge :   1.0000
  | Found atomic mass :    1.00794000000000      amu
  | Found l_max for Hartree potential  :   4
  | Found cutoff potl. onset [A], width [A], scale factor :    3.50000    1.50000    1.00000
  | Threshold for basis-dependent cutoff potential is   0.100000E-03
  | Found data for basic radial integration grid :    24 points, outermost radius =    5.000 A
  | Found multiplier for basic radial grid :   1
  | Found angular grid specification: user-specified.
  | Specified grid contains     5 separate shells.
  | Check grid settings after all constraints further below.
  | Found free-atom valence shell :  1 s   1.000
  | No ionic wave fns used. Skipping ion_occ.
  | Found hydrogenic basis function :  2 s   2.100
  | Found hydrogenic basis function :  2 p   3.500
  Species H                   : Missing cutoff potential type.
  Defaulting to exp(1/x)/(1-x)^2 type cutoff potential.
  Species H : No 'logarithmic' tag. Using default grid for free atom:
  | Default logarithmic grid data [bohr] : 0.1000E-03 0.1000E+03 0.1012E+01
  Species H : On-site basis accuracy parameter (for Gram-Schmidt orthonormalisation) not specified.
  Using default value basis_acc =  0.1000000E-03.
  Species H                   : Using default innermost maximum threshold i_radial=  2 for radial functions.
  Species H                   : Default cutoff onset for free atom density etc. : 0.35000000E+01 AA.
  Species H                   : Basic radial grid will be enhanced according to radial_multiplier =   1, to contain    24 grid points.
 
  Reading configuration options for species C                   .
  | Found nuclear charge :   6.0000
  | Found atomic mass :    12.0107000000000      amu
  | Found l_max for Hartree potential  :   4
  | Found cutoff potl. onset [A], width [A], scale factor :    3.50000    1.50000    1.00000
  | Threshold for basis-dependent cutoff potential is   0.100000E-03
  | Found data for basic radial integration grid :    34 points, outermost radius =    5.000 A
  | Found multiplier for basic radial grid :   1
  | Found angular grid specification: user-specified.
  | Specified grid contains     5 separate shells.
  | Check grid settings after all constraints further below.
  | Found free-atom valence shell :  2 s   2.000
  | Found free-atom valence shell :  2 p   2.000
  | No ionic wave fns used. Skipping ion_occ.
  | No ionic wave fns used. Skipping ion_occ.
  | Found hydrogenic basis function :  2 p   1.700
  | Found hydrogenic basis function :  3 d   6.000
  | Found hydrogenic basis function :  2 s   4.900
  Species C                   : Missing cutoff potential type.
  Defaulting to exp(1/x)/(1-x)^2 type cutoff potential.
  Species C : No 'logarithmic' tag. Using default grid for free atom:
  | Default logarithmic grid data [bohr] : 0.1000E-03 0.1000E+03 0.1012E+01
  Species C : On-site basis accuracy parameter (for Gram-Schmidt orthonormalisation) not specified.
  Using default value basis_acc =  0.1000000E-03.
  Species C                   : Using default innermost maximum threshold i_radial=  2 for radial functions.
  Species C                   : Default cutoff onset for free atom density etc. : 0.35000000E+01 AA.
  Species C                   : Basic radial grid will be enhanced according to radial_multiplier =   1, to contain    34 grid points.
 
  Reading configuration options for species N                   .
  | Found nuclear charge :   7.0000
  | Found atomic mass :    14.0067000000000      amu
  | Found l_max for Hartree potential  :   4
  | Found cutoff potl. onset [A], width [A], scale factor :    3.50000    1.50000    1.00000
  | Threshold for basis-dependent cutoff potential is   0.100000E-03
  | Found data for basic radial integration grid :    35 points, outermost radius =    5.000 A
  | Found multiplier for basic radial grid :   1
  | Found angular grid specification: user-specified.
  | Specified grid contains     5 separate shells.
  | Check grid settings after all constraints further below.
  | Found free-atom valence shell :  2 s   2.000
  | Found free-atom valence shell :  2 p   3.000
  | No ionic wave fns used. Skipping ion_occ.
  | No ionic wave fns used. Skipping ion_occ.
  | Found hydrogenic basis function :  2 p   1.800
  | Found hydrogenic basis function :  3 d   6.800
  | Found hydrogenic basis function :  3 s   5.800
  Species N                   : Missing cutoff potential type.
  Defaulting to exp(1/x)/(1-x)^2 type cutoff potential.
  Species N : No 'logarithmic' tag. Using default grid for free atom:
  | Default logarithmic grid data [bohr] : 0.1000E-03 0.1000E+03 0.1012E+01
  Species N : On-site basis accuracy parameter (for Gram-Schmidt orthonormalisation) not specified.
  Using default value basis_acc =  0.1000000E-03.
  Species N                   : Using default innermost maximum threshold i_radial=  2 for radial functions.
  Species N                   : Default cutoff onset for free atom density etc. : 0.35000000E+01 AA.
  Species N                   : Basic radial grid will be enhanced according to radial_multiplier =   1, to contain    35 grid points.
 
  Reading configuration options for species O                   .
  | Found nuclear charge :   8.0000
  | Found atomic mass :    15.9994000000000      amu
  | Found l_max for Hartree potential  :   4
  | Found cutoff potl. onset [A], width [A], scale factor :    3.50000    1.50000    1.00000
  | Threshold for basis-dependent cutoff potential is   0.100000E-03
  | Found data for basic radial integration grid :    36 points, outermost radius =    5.000 A
  | Found multiplier for basic radial grid :   1
  | Found angular grid specification: user-specified.
  | Specified grid contains     5 separate shells.
  | Check grid settings after all constraints further below.
  | Found free-atom valence shell :  2 s   2.000
  | Found free-atom valence shell :  2 p   4.000
  | No ionic wave fns used. Skipping ion_occ.
  | No ionic wave fns used. Skipping ion_occ.
  | Found hydrogenic basis function :  2 p   1.800
  | Found hydrogenic basis function :  3 d   7.600
  | Found hydrogenic basis function :  3 s   6.400
  Species O                   : Missing cutoff potential type.
  Defaulting to exp(1/x)/(1-x)^2 type cutoff potential.
  Species O : No 'logarithmic' tag. Using default grid for free atom:
  | Default logarithmic grid data [bohr] : 0.1000E-03 0.1000E+03 0.1012E+01
  Species O : On-site basis accuracy parameter (for Gram-Schmidt orthonormalisation) not specified.
  Using default value basis_acc =  0.1000000E-03.
  Species O                   : Using default innermost maximum threshold i_radial=  2 for radial functions.
  Species O                   : Default cutoff onset for free atom density etc. : 0.35000000E+01 AA.
  Species O                   : Basic radial grid will be enhanced according to radial_multiplier =   1, to contain    36 grid points.
 
  Finished reading input file 'control.in'. Consistency checks are next.
 
  MPI_IN_PLACE appears to work with this MPI implementation.
  | Keeping use_mpi_in_place .true. (see manual).
  Target number of points in a grid batch is not set. Defaulting to  100
  Method for grid partitioning is not set. Defaulting to parallel hash+maxmin partitioning.
  Batch size limit is not set. Defaulting to    200
  By default, will store active basis functions for each batch.
  If in need of memory, prune_basis_once .false. can be used to disable this option.
  communication_type for Hartree potential was not specified.
  Defaulting to calc_hartree .
  Pulay mixer: Number of initial linear mixing iterations not set.
  Defaulting to    0 iterations.
  Work space size for distributed Hartree potential not set.
  Defaulting to   0.200000E+03 MB.
  Algorithm-dependent basis array size parameters:
  | n_max_pulay                         :       10
  Presetting      1001 iterations before the initial mixing cycle
  is restarted anyway using the sc_init_iter criterion / keyword.
  Presetting a factor      1.000 between actual scf density residual
  and density convergence criterion sc_accuracy_rho below which sc_init_iter
  takes no effect.
  Geometry relaxation not requested: no relaxation will be performed.
  Handling of forces: Unphysical translation and rotation will be removed from forces.
  No accuracy limit for integral partition fn. given. Defaulting to  0.1000E-14.
  No threshold value for u(r) in integrations given. Defaulting to  0.1000E-05.
  No accuracy for occupation numbers given. Defaulting to  0.1000E-12.
  No threshold value for occupation numbers given. Defaulting to  0.0000E+00.
  No accuracy for fermi level given. Defaulting to  0.1000E-19.
  Maximum # of iterations to find E_F not set. Defaulting to  200.
  Preferred method for the eigenvalue solver ('KS_method') not specified in 'control.in'.
  Defaulting to serial version, 'lapack_fast'.
  Will not use alltoall communication since running on < 1024 CPUs.
  Threshold for basis singularities not set.
  Default threshold for basis singularities:  0.1000E-04
  partition_type (choice of integration weights) for integrals was not specified.
  | Using a version of the partition function of Stratmann and coworkers ('stratmann_smoother').
  | At each grid point, the set of atoms used to build the partition table is smoothly restricted to
  | only those atoms whose free-atom density would be non-zero at that grid point.
  Partitioning for Hartree potential was not defined. Using partition_type for integrals.
  | Adjusted default value of keyword multip_moments_threshold to:       0.10000000E-11
  | This value may affect high angular momentum components of the Hartree potential in periodic systems.
  No q(lm)/r^(l+1) cutoff set for long-range Hartree potential.
  | Using default value of  0.100000E-09 .
  | Verify using the multipole_threshold keyword.
  Defaulting to new monopole extrapolation.
  Density update method: automatic selection selected.
------------------------------------------------------------


------------------------------------------------------------
          Reading geometry description geometry.in.
------------------------------------------------------------
  Input structure read successfully.
  The structure contains       13 atoms,  and a total of         48.000 electrons.

  Input geometry:
  | No unit cell requested.
  | Atomic structure:
  |       Atom                x [A]            y [A]            z [A]
  |    1: Species C             0.00000000        0.00000000        0.00000000
  |    2: Species H             1.09300000        0.00000000        0.00000000
  |    3: Species N            -0.47961000        0.00000000       -1.41207000
  |    4: Species H            -1.11406000        0.78893000       -1.54202000
  |    5: Species H             0.32413000        0.08933000       -2.03026000
  |    6: Species C            -0.49584000        1.26211000        0.72868000
  |    7: Species H            -1.58789000        1.28919000        0.74431000
  |    8: Species H            -0.13407000        1.27425000        1.75947000
  |    9: Species H            -0.13407000        2.16087000        0.22380000
  |   10: Species C            -0.39425000       -1.28861000        0.74398000
  |   11: Species O            -0.10189000       -1.56493000        1.88303000
  |   12: Species O            -1.10210000       -2.13717000        0.06896000
  |   13: Species H            -1.98361000       -1.85363000        0.36482000
  |

  | The smallest distance between any two atoms is         0.97210491 AA.
  |
  | The first atom of this pair is atom number                     12 .
  | The second atom of this pair is atom number                    13 .

  Number of empty states per atom not set in control.in - providing a guess from actual geometry.
  | Total number of empty states used during s.c.f. cycle:       29
  If you use a very high smearing, use empty_states (per atom!) in control.in to increase this value.

  Structure-dependent array size parameters: 
  | Maximum number of distinct radial functions  :       21
  | Maximum number of basis functions            :      119
  | Number of Kohn-Sham states (occupied + empty):       53
------------------------------------------------------------

------------------------------------------------------------
          Preparing all fixed parts of the calculation.
------------------------------------------------------------
  Determining machine precision:
    2.225073858507201E-308
  Setting up grids for atomic and cluster calculations.

  Creating wave function, potential, and density for free atoms.

  Species: H

  List of occupied orbitals and eigenvalues:
    n    l              occ      energy [Ha]    energy [eV]
    1    0           1.0000        -0.237589        -6.4651


  Species: C

  List of occupied orbitals and eigenvalues:
    n    l              occ      energy [Ha]    energy [eV]
    1    0           2.0000       -10.038835      -273.1706
    2    0           2.0000        -0.502696       -13.6791
    2    1           2.0000        -0.191971        -5.2238


  Species: N

  List of occupied orbitals and eigenvalues:
    n    l              occ      energy [Ha]    energy [eV]
    1    0           2.0000       -14.128000      -384.4424
    2    0           2.0000        -0.681077       -18.5330
    2    1           3.0000        -0.259788        -7.0692


  Species: O

  List of occupied orbitals and eigenvalues:
    n    l              occ      energy [Ha]    energy [eV]
    1    0           2.0000       -18.898188      -514.2459
    2    0           2.0000        -0.878505       -23.9053
    2    1           4.0000        -0.331779        -9.0282

  Creating fixed part of basis set: Ionic, confined, hydrogenic.
 
  H                    hydrogenic:
 
  List of hydrogenic basis orbitals: 
    n    l      effective z      eigenvalue [eV]  inner max. [A]     outer max. [A]     outer radius [A]   
    2    0         2.100000       -14.9728           0.193243           1.317208           4.583499
    2    1         3.500000       -41.6669           0.602369           0.602369           3.723403
 
 
  C                    hydrogenic:
 
  List of hydrogenic basis orbitals: 
    n    l      effective z      eigenvalue [eV]  inner max. [A]     outer max. [A]     outer radius [A]   
    2    1         1.700000        -9.7616           1.230570           1.230570           4.607917
    3    2         6.000000       -54.4224           0.792453           0.792453           3.883070
    2    0         4.900000       -81.6679           0.082559           0.562749           3.078220
 
 
  N                    hydrogenic:
 
  List of hydrogenic basis orbitals: 
    n    l      effective z      eigenvalue [eV]  inner max. [A]     outer max. [A]     outer radius [A]   
    2    1         1.800000       -10.9749           1.177451           1.177451           4.573712
    3    2         6.800000       -69.9026           0.704619           0.704619           3.538137
    3    0         5.800000       -50.8545           0.067388           1.191934           4.250239
 
 
  O                    hydrogenic:
 
  List of hydrogenic basis orbitals: 
    n    l      effective z      eigenvalue [eV]  inner max. [A]     outer max. [A]     outer radius [A]   
    2    1         1.800000       -10.9749           1.164242           1.164242           4.578029
    3    2         7.600000       -87.3180           0.624125           0.624125           3.251020
    3    0         6.400000       -61.9207           0.061167           1.081902           4.001998
 

  Adding cutoff potential to free-atom effective potential.
  Creating atomic-like basis functions for current effective potential.

  Species H                   :

  List of atomic basis orbitals and eigenvalues:
    n    l      energy [Ha]    energy [eV]    outer radius [A]
    1    0        -0.237589        -6.4651       4.527807


  Species C                   :

  List of atomic basis orbitals and eigenvalues:
    n    l      energy [Ha]    energy [eV]    outer radius [A]
    1    0       -10.038835      -273.1706       1.934409
    2    0        -0.502696       -13.6791       4.496620
    2    1        -0.191971        -5.2238       4.551928


  Species N                   :

  List of atomic basis orbitals and eigenvalues:
    n    l      energy [Ha]    energy [eV]    outer radius [A]
    1    0       -14.128000      -384.4424       1.637919
    2    0        -0.681077       -18.5330       4.463241
    2    1        -0.259788        -7.0692       4.518138


  Species O                   :

  List of atomic basis orbitals and eigenvalues:
    n    l      energy [Ha]    energy [eV]    outer radius [A]
    1    0       -18.898188      -514.2459       1.415765
    2    0        -0.878505       -23.9053       4.413171
    2    1        -0.331779        -9.0282       4.522403

  Assembling full basis from fixed parts.
  | Species H :   atomic orbital   1 s accepted.
  | Species H :    hydro orbital   2 s accepted.
  | Species H :    hydro orbital   2 p accepted.
  | Species C :   atomic orbital   1 s accepted.
  | Species C :    hydro orbital   2 s accepted.
  | Species C :   atomic orbital   2 s accepted.
  | Species C :   atomic orbital   2 p accepted.
  | Species C :    hydro orbital   2 p accepted.
  | Species C :    hydro orbital   3 d accepted.
  | Species N :   atomic orbital   1 s accepted.
  | Species N :    hydro orbital   3 s accepted.
  | Species N :   atomic orbital   2 s accepted.
  | Species N :   atomic orbital   2 p accepted.
  | Species N :    hydro orbital   2 p accepted.
  | Species N :    hydro orbital   3 d accepted.
  | Species O :   atomic orbital   1 s accepted.
  | Species O :    hydro orbital   3 s accepted.
  | Species O :   atomic orbital   2 s accepted.
  | Species O :   atomic orbital   2 p accepted.
  | Species O :    hydro orbital   2 p accepted.
  | Species O :    hydro orbital   3 d accepted.
 
  Basis size parameters after reduction:
  | Total number of radial functions:       21
  | Total number of basis functions :      119
 
  Per-task memory consumption for arrays in subroutine allocate_ext:
  |           5.250512MB.
  Testing on-site integration grid accuracy.
  |  Species  Function  <phi|h_atom|phi> (log., in eV)  <phi|h_atom|phi> (rad., in eV)
           1        1                 -6.4663192853                 -6.4651273558
           1        2                 13.7111246313                 13.7170609718
           1        3                 25.2673269279                 25.2674696378
           2        4               -273.1705927641               -273.1705631568
           2        5                -10.7109323383                -10.7107120029
           2        6                 17.4381822266                 17.4352413244
           2        7                 -5.2255326521                 -5.2270484734
           2        8                  8.6835629259                  8.6603288385
           2        9                 27.4952418996                 27.4953360207
           3       10               -384.4424306495               -384.4423701208
           3       11                 12.5842251816                 12.5842222903
           3       12                -15.7264628251                -15.7264433455
           3       13                 -7.0696854293                 -7.0701769954
           3       14                  8.8090390882                  8.7901077751
           3       15                 35.9586762123                 35.9588528632
           4       16               -514.2458688638               -514.2457643834
           4       17                 15.1795651126                 15.1795290741
           4       18                -21.5359799773                -21.5360846186
           4       19                 -9.0283069236                 -9.0284644067
           4       20                  8.3027758564                  8.2834874195
           4       21                 45.8339351984                 45.8338762259

  Preparing densities etc. for the partition functions (integrals / Hartree potential).

  Preparations completed.
  max(cpu_time)          :      0.148 s.
  Wall clock time (cpu1) :      0.150 s.
------------------------------------------------------------

------------------------------------------------------------
          Begin self-consistency loop: Initialization.

          Date     :  20200710, Time     :  151448.610
------------------------------------------------------------

  Initializing index lists of integration centers etc. from given atomic structure:
  | Number of centers in hartree potential         :        13
  | Number of centers in hartree multipole         :        13
  | Number of centers in electron density summation:        13
  | Number of centers in basis integrals           :        13
  | Number of centers in integrals                 :        13
  | Number of centers in hamiltonian               :        13
  Partitioning the integration grid into batches with parallel hashing+maxmin method.
  | Number of batches:      955
  | Maximal batch size:     139
  | Minimal batch size:      66
  | Average batch size:      72.928
  | Standard deviation of batch sizes:      17.639

  Integration load balanced across     1 MPI tasks.
  Work distribution over tasks is as follows:
  Task     0 has      69646 integration points.
  Initializing partition tables, free-atom densities, potentials, etc. across the integration grid (initialize_grid_storage).
  | initialize_grid_storage: Actual outermost partition radius vs. multipole_radius_free
  | (-- VB: in principle, multipole_radius_free should be larger, hence this output)
  | Species        1: Confinement radius =              4.999999999999999 AA, multipole_radius_free =              5.054417573612229 AA.
  | Species        1: outer_partition_radius set to              5.054417573612229 AA .
  | Species        2: Confinement radius =              4.999999999999999 AA, multipole_radius_free =              5.019602836301480 AA.
  | Species        2: outer_partition_radius set to              5.019602836301480 AA .
  | Species        3: Confinement radius =              4.999999999999999 AA, multipole_radius_free =              5.043624274424571 AA.
  | Species        3: outer_partition_radius set to              5.043624274424571 AA .
  | Species        4: Confinement radius =              4.999999999999999 AA, multipole_radius_free =              5.048384829883283 AA.
  | Species        4: outer_partition_radius set to              5.048384829883283 AA .
  | Original list of interatomic distances with          13 x         13 entries is created.
  | Net number of integration points:    69646
  | of which are non-zero points    :    59540
  Renormalizing the initial density to the exact electron count on the 3D integration grid.
  | Initial density: Formal number of electrons (from input files) :      48.0000000000
  | Integrated number of electrons on 3D grid     :      47.9998927556
  | Charge integration error                      :      -0.0001072444
  | Normalization factor for density and gradient :       1.0000022343
  Obtaining max. number of non-zero basis functions in each batch (get_n_compute_maxes).
  | Maximal number of non-zero basis functions:      119 in task     0
  Selecting the method for density update.
  Loop over occupied states selected for charge density update.
  Allocating        0.050 MB for KS_eigenvector
  Integrating Hamiltonian matrix: batch-based integration.
  Time summed over all CPUs for integration: real work        0.512 s, elapsed        0.512 s
  Integrating overlap matrix.
  Time summed over all CPUs for integration: real work        0.213 s, elapsed        0.213 s

  Updating Kohn-Sham eigenvalues and eigenvectors using ELSI and the ELPA eigensolver.
  Overlap matrix is nonsingular
  | Lowest eigenvalue of overlap  :  0.44E-02
  | Highest eigenvalue of overlap :  0.62E+01
  Finished singularity check of overlap matrix
  | Time :     0.002 s
  Finished Cholesky decomposition
  | Time :     0.000 s
  Finished transformation to standard eigenproblem
  | Time :     0.000 s
  Starting LAPACK eigensolver
  Finished solving standard eigenproblem
  | Time :     0.002 s
  Finished back-transformation of eigenvectors
  | Time :     0.000 s

  Obtaining occupation numbers and chemical potential using ELSI.
  | Chemical potential (Fermi level):    -9.89274046eV
  Writing Kohn-Sham eigenvalues.

  State    Occupation    Eigenvalue [Ha]    Eigenvalue [eV]
      1       2.00000         -19.007486         -517.22000
      2       2.00000         -18.977347         -516.39988
      3       2.00000         -14.245819         -387.64846
      4       2.00000         -10.166907         -276.65563
      5       2.00000         -10.141312         -275.95913
      6       2.00000         -10.131883         -275.70256
      7       2.00000          -1.183349          -32.20056
      8       2.00000          -1.096563          -29.83901
      9       2.00000          -0.991936          -26.99194
     10       2.00000          -0.859076          -23.37665
     11       2.00000          -0.759197          -20.65879
     12       2.00000          -0.677181          -18.42703
     13       2.00000          -0.625578          -17.02285
     14       2.00000          -0.609092          -16.57423
     15       2.00000          -0.584801          -15.91325
     16       2.00000          -0.575647          -15.66415
     17       2.00000          -0.552885          -15.04477
     18       2.00000          -0.532699          -14.49548
     19       2.00000          -0.519075          -14.12476
     20       2.00000          -0.495295          -13.47766
     21       2.00000          -0.456009          -12.40864
     22       2.00000          -0.427530          -11.63369
     23       2.00000          -0.412767          -11.23195
     24       2.00000          -0.380234          -10.34671
     25       0.00000          -0.163134           -4.43911
     26       0.00000          -0.065667           -1.78688
     27       0.00000          -0.035583           -0.96827
     28       0.00000          -0.020139           -0.54800
     29       0.00000          -0.009037           -0.24591
     30       0.00000           0.010292            0.28007
     31       0.00000           0.017435            0.47444
     32       0.00000           0.028526            0.77622
     33       0.00000           0.042342            1.15217
     34       0.00000           0.078482            2.13560
     35       0.00000           0.095919            2.61009
     36       0.00000           0.134350            3.65586
     37       0.00000           0.157906            4.29685
     38       0.00000           0.202456            5.50911
     39       0.00000           0.214621            5.84013
     40       0.00000           0.230209            6.26431
     41       0.00000           0.264153            7.18796
     42       0.00000           0.265546            7.22588
     43       0.00000           0.284031            7.72889
     44       0.00000           0.308793            8.40269
     45       0.00000           0.315313            8.58010
     46       0.00000           0.356657            9.70514
     47       0.00000           0.377475           10.27160
     48       0.00000           0.399836           10.88009
     49       0.00000           0.440903           11.99758
     50       0.00000           0.473358           12.88073
     51       0.00000           0.527194           14.34568
     52       0.00000           0.537790           14.63400
     53       0.00000           0.553363           15.05778

  Highest occupied state (VBM) at    -10.34670624 eV
  | Occupation number:      2.00000000

  Lowest unoccupied state (CBM) at    -4.43911476 eV
  | Occupation number:      0.00000000

  Overall HOMO-LUMO gap:      5.90759148 eV.
  Calculating total energy contributions from superposition of free atom densities.

  Total energy components:
  | Sum of eigenvalues            :        -188.81933536 Ha       -5138.03553549 eV
  | XC energy correction          :         -41.78381424 Ha       -1136.99543527 eV
  | XC potential correction       :          53.71319603 Ha        1461.61042993 eV
  | Free-atom electrostatic energy:        -146.86585860 Ha       -3996.42334827 eV
  | Hartree energy correction     :           0.00000000 Ha           0.00000000 eV
  | vdW energy correction         :           0.00000000 Ha           0.00000000 eV
  | Entropy correction            :           0.00000000 Ha           0.00000000 eV
  | ---------------------------
  | Total energy                  :        -323.75581217 Ha       -8809.84388911 eV
  | Total energy, T -> 0          :        -323.75581217 Ha       -8809.84388911 eV  <-- do not rely on this value for anything but (periodic) metals
  | Electronic free energy        :        -323.75581217 Ha       -8809.84388911 eV

  Derived energy quantities:
  | Kinetic energy                :         320.49016092 Ha        8720.98099715 eV
  | Electrostatic energy          :        -602.46215884 Ha      -16393.82945099 eV
  | Energy correction for multipole
  | error in Hartree potential    :           0.00000000 Ha           0.00000000 eV
  | Sum of eigenvalues per atom                           :        -395.23350273 eV
  | Total energy (T->0) per atom                          :        -677.68029916 eV  <-- do not rely on this value for anything but (periodic) metals
  | Electronic free energy per atom                       :        -677.68029916 eV
  Initialize hartree_potential_storage
  Max. number of atoms included in rho_multipole:           13

  End scf initialization - timings             :  max(cpu_time)    wall_clock(cpu1)
  | Time for scf. initialization               :        1.170 s           1.171 s
  | Boundary condition initialization          :        0.000 s           0.000 s
  | Integration                                :        0.725 s           0.725 s
  | Solution of K.-S. eqns.                    :        0.004 s           0.005 s
  | Grid partitioning                          :        0.112 s           0.112 s
  | Preloading free-atom quantities on grid    :        0.002 s           0.003 s
  | Free-atom superposition energy             :        0.086 s           0.086 s
  | Total energy evaluation                    :        0.000 s           0.000 s

  Partial memory accounting:
  | Current value for overall tracked memory usage on task 0  :           0.165 MB
  | Peak value for overall tracked memory usage on task 0     :           0.678 MB after allocating wave
  | Largest tracked array allocation on task 0 so far         :           0.132 MB  when allocating H_times_psi
  Note:  These values currently only include a subset of arrays which are explicitly tracked.
  The "true" memory usage will be greater.
------------------------------------------------------------

------------------------------------------------------------
          Begin self-consistency iteration #    1

  Date     :  20200710, Time     :  151449.781
------------------------------------------------------------
  Evaluating new KS density.
  Integration grid: deviation in total charge (<rho> - N_e) =  -2.131628E-14
  Pulay mixing of updated and previous charge densities.

  Evaluating partitioned Hartree potential by multipole expansion.
  | Analytical far-field extrapolation by fixed multipoles:
  | Hartree multipole sum: apparent total charge =  -0.207924E-03
  Summing up the Hartree potential.
  Time summed over all CPUs for potential: real work        0.283 s, elapsed        0.283 s
  | RMS charge density error from multipole expansion :   0.586047E-02

  Integrating Hamiltonian matrix: batch-based integration.
  Time summed over all CPUs for integration: real work        0.500 s, elapsed        0.500 s

  Updating Kohn-Sham eigenvalues and eigenvectors using ELSI and the ELPA eigensolver.
  Finished Cholesky decomposition
  | Time :     0.000 s
  Finished transformation to standard eigenproblem
  | Time :     0.000 s
  Starting LAPACK eigensolver
  Finished solving standard eigenproblem
  | Time :     0.002 s
  Finished back-transformation of eigenvectors
  | Time :     0.000 s

  Obtaining occupation numbers and chemical potential using ELSI.
  | Chemical potential (Fermi level):    -4.77485825eV
  Writing Kohn-Sham eigenvalues.

  State    Occupation    Eigenvalue [Ha]    Eigenvalue [eV]
      1       2.00000         -18.888312         -513.97713
      2       2.00000         -18.838292         -512.61602
      3       2.00000         -14.096311         -383.58014
      4       2.00000         -10.113927         -275.21396
      5       2.00000         -10.063001         -273.82820
      6       2.00000         -10.035320         -273.07494
      7       2.00000          -1.128038          -30.69547
      8       2.00000          -1.030710          -28.04705
      9       2.00000          -0.922191          -25.09409
     10       2.00000          -0.794663          -21.62387
     11       2.00000          -0.707476          -19.25140
     12       2.00000          -0.627231          -17.06782
     13       2.00000          -0.572305          -15.57322
     14       2.00000          -0.548515          -14.92585
     15       2.00000          -0.521363          -14.18700
     16       2.00000          -0.517198          -14.07368
     17       2.00000          -0.488422          -13.29063
     18       2.00000          -0.473632          -12.88818
     19       2.00000          -0.456430          -12.42010
     20       2.00000          -0.439763          -11.96657
     21       2.00000          -0.392817          -10.68910
     22       2.00000          -0.365128           -9.93564
     23       2.00000          -0.339315           -9.23322
     24       2.00000          -0.306759           -8.34734
     25       0.00000          -0.126065           -3.43040
     26       0.00000          -0.042528           -1.15724
     27       0.00000          -0.010112           -0.27516
     28       0.00000           0.017004            0.46269
     29       0.00000           0.021433            0.58323
     30       0.00000           0.049736            1.35338
     31       0.00000           0.053370            1.45227
     32       0.00000           0.063833            1.73697
     33       0.00000           0.082165            2.23581
     34       0.00000           0.118269            3.21825
     35       0.00000           0.136482            3.71387
     36       0.00000           0.164007            4.46285
     37       0.00000           0.186373            5.07147
     38       0.00000           0.229681            6.24993
     39       0.00000           0.248084            6.75072
     40       0.00000           0.267216            7.27132
     41       0.00000           0.295824            8.04979
     42       0.00000           0.301076            8.19268
     43       0.00000           0.319635            8.69772
     44       0.00000           0.345189            9.39308
     45       0.00000           0.357811            9.73654
     46       0.00000           0.395748           10.76886
     47       0.00000           0.422824           11.50564
     48       0.00000           0.440720           11.99260
     49       0.00000           0.476360           12.96243
     50       0.00000           0.505722           13.76140
     51       0.00000           0.562429           15.30447
     52       0.00000           0.576132           15.67736
     53       0.00000           0.585212           15.92442

  Highest occupied state (VBM) at     -8.34733664 eV
  | Occupation number:      2.00000000

  Lowest unoccupied state (CBM) at    -3.43040266 eV
  | Occupation number:      0.00000000

  Overall HOMO-LUMO gap:      4.91693398 eV.

  Total energy components:
  | Sum of eigenvalues            :        -185.33423928 Ha       -5043.20124605 eV
  | XC energy correction          :         -42.11616287 Ha       -1146.03910142 eV
  | XC potential correction       :          54.14555517 Ha        1473.37552062 eV
  | Free-atom electrostatic energy:        -146.86585860 Ha       -3996.42334827 eV
  | Hartree energy correction     :          -3.39855830 Ha         -92.47947672 eV
  | vdW energy correction         :           0.00000000 Ha           0.00000000 eV
  | Entropy correction            :           0.00000000 Ha           0.00000000 eV
  | ---------------------------
  | Total energy                  :        -323.56926388 Ha       -8804.76765183 eV
  | Total energy, T -> 0          :        -323.56926388 Ha       -8804.76765183 eV  <-- do not rely on this value for anything but (periodic) metals
  | Electronic free energy        :        -323.56926388 Ha       -8804.76765183 eV

  Derived energy quantities:
  | Kinetic energy                :         322.30612642 Ha        8770.39593274 eV
  | Electrostatic energy          :        -603.75922743 Ha      -16429.12448316 eV
  | Energy correction for multipole
  | error in Hartree potential    :           0.01221788 Ha           0.33246546 eV
  | Sum of eigenvalues per atom                           :        -387.93855739 eV
  | Total energy (T->0) per atom                          :        -677.28981937 eV  <-- do not rely on this value for anything but (periodic) metals
  | Electronic free energy per atom                       :        -677.28981937 eV

  Self-consistency convergence accuracy:
  | Change of charge density      :  0.5911E+00
  | Change of sum of eigenvalues  :  0.9483E+02 eV
  | Change of total energy        :  0.5076E+01 eV

  End self-consistency iteration #     1       :  max(cpu_time)    wall_clock(cpu1)
  | Time for this iteration                    :        1.196 s           1.201 s
  | Charge density update                      :        0.398 s           0.400 s
  | Density mixing                             :        0.005 s           0.005 s
  | Hartree multipole update                   :        0.009 s           0.009 s
  | Hartree multipole summation                :        0.284 s           0.284 s
  | Integration                                :        0.498 s           0.500 s
  | Solution of K.-S. eqns.                    :        0.002 s           0.002 s
  | Total energy evaluation                    :        0.000 s           0.000 s

  Partial memory accounting:
  | Current value for overall tracked memory usage on task 0  :           0.165 MB
  | Peak value for overall tracked memory usage on task 0     :           0.695 MB after allocating gradient_basis_wave
  | Largest tracked array allocation on task 0 so far         :           0.397 MB  when allocating gradient_basis_wave
  Note:  These values currently only include a subset of arrays which are explicitly tracked.
  The "true" memory usage will be greater.
------------------------------------------------------------

------------------------------------------------------------
          Begin self-consistency iteration #    2

  Date     :  20200710, Time     :  151450.983
------------------------------------------------------------
  Evaluating new KS density.
  Integration grid: deviation in total charge (<rho> - N_e) =   4.263256E-14
  Pulay mixing of updated and previous charge densities.

  Evaluating partitioned Hartree potential by multipole expansion.
  | Analytical far-field extrapolation by fixed multipoles:
  | Hartree multipole sum: apparent total charge =  -0.336672E-03
  Summing up the Hartree potential.
  Time summed over all CPUs for potential: real work        0.284 s, elapsed        0.284 s
  | RMS charge density error from multipole expansion :   0.138598E-01

  Integrating Hamiltonian matrix: batch-based integration.
  Time summed over all CPUs for integration: real work        0.495 s, elapsed        0.495 s

  Updating Kohn-Sham eigenvalues and eigenvectors using ELSI and the ELPA eigensolver.
  Finished Cholesky decomposition
  | Time :     0.000 s
  Finished transformation to standard eigenproblem
  | Time :     0.000 s
  Starting LAPACK eigensolver
  Finished solving standard eigenproblem
  | Time :     0.001 s
  Finished back-transformation of eigenvectors
  | Time :     0.000 s

  Obtaining occupation numbers and chemical potential using ELSI.
  | Chemical potential (Fermi level):    -3.59377010eV
  Highest occupied state (VBM) at     -6.33639725 eV
  | Occupation number:      2.00000000

  Lowest unoccupied state (CBM) at    -2.15815724 eV
  | Occupation number:      0.00000000

  Overall HOMO-LUMO gap:      4.17824002 eV.

  Checking to see if s.c.f. parameters should be adjusted.

  Total energy components:
  | Sum of eigenvalues            :        -181.67782634 Ha       -4943.70518759 eV
  | XC energy correction          :         -42.47822641 Ha       -1155.89135159 eV
  | XC potential correction       :          54.61505394 Ha        1486.15123214 eV
  | Free-atom electrostatic energy:        -146.86585860 Ha       -3996.42334827 eV
  | Hartree energy correction     :          -7.08112416 Ha        -192.68719232 eV
  | vdW energy correction         :           0.00000000 Ha           0.00000000 eV
  | Entropy correction            :           0.00000000 Ha           0.00000000 eV
  | ---------------------------
  | Total energy                  :        -323.48798157 Ha       -8802.55584764 eV
  | Total energy, T -> 0          :        -323.48798157 Ha       -8802.55584764 eV  <-- do not rely on this value for anything but (periodic) metals
  | Electronic free energy        :        -323.48798157 Ha       -8802.55584764 eV

  Derived energy quantities:
  | Kinetic energy                :         323.63256188 Ha        8806.49007805 eV
  | Electrostatic energy          :        -604.64231705 Ha      -16453.15457410 eV
  | Energy correction for multipole
  | error in Hartree potential    :           0.02678189 Ha           0.72877232 eV
  | Sum of eigenvalues per atom                           :        -380.28501443 eV
  | Total energy (T->0) per atom                          :        -677.11968059 eV  <-- do not rely on this value for anything but (periodic) metals
  | Electronic free energy per atom                       :        -677.11968059 eV

  Self-consistency convergence accuracy:
  | Change of charge density      :  0.3696E+00
  | Change of sum of eigenvalues  :  0.9950E+02 eV
  | Change of total energy        :  0.2212E+01 eV

  End self-consistency iteration #     2       :  max(cpu_time)    wall_clock(cpu1)
  | Time for this iteration                    :        1.187 s           1.187 s
  | Charge density update                      :        0.389 s           0.389 s
  | Density mixing                             :        0.007 s           0.007 s
  | Hartree multipole update                   :        0.009 s           0.009 s
  | Hartree multipole summation                :        0.284 s           0.284 s
  | Integration                                :        0.495 s           0.496 s
  | Solution of K.-S. eqns.                    :        0.002 s           0.002 s
  | Total energy evaluation                    :        0.000 s           0.000 s

  Partial memory accounting:
  | Current value for overall tracked memory usage on task 0  :           0.166 MB
  | Peak value for overall tracked memory usage on task 0     :           0.695 MB after allocating gradient_basis_wave
  | Largest tracked array allocation on task 0 so far         :           0.397 MB  when allocating gradient_basis_wave
  Note:  These values currently only include a subset of arrays which are explicitly tracked.
  The "true" memory usage will be greater.
------------------------------------------------------------

------------------------------------------------------------
          Begin self-consistency iteration #    3

  Date     :  20200710, Time     :  151452.171
------------------------------------------------------------
  Evaluating new KS density.
  Integration grid: deviation in total charge (<rho> - N_e) =   0.000000E+00
  Pulay mixing of updated and previous charge densities.

  Evaluating partitioned Hartree potential by multipole expansion.
  | Analytical far-field extrapolation by fixed multipoles:
  | Hartree multipole sum: apparent total charge =  -0.428902E-03
  Summing up the Hartree potential.
  Time summed over all CPUs for potential: real work        0.285 s, elapsed        0.285 s
  | RMS charge density error from multipole expansion :   0.217513E-01

  Integrating Hamiltonian matrix: batch-based integration.
  Time summed over all CPUs for integration: real work        0.499 s, elapsed        0.499 s

  Updating Kohn-Sham eigenvalues and eigenvectors using ELSI and the ELPA eigensolver.
  Finished Cholesky decomposition
  | Time :     0.000 s
  Finished transformation to standard eigenproblem
  | Time :     0.000 s
  Starting LAPACK eigensolver
  Finished solving standard eigenproblem
  | Time :     0.001 s
  Finished back-transformation of eigenvectors
  | Time :     0.000 s

  Obtaining occupation numbers and chemical potential using ELSI.
  | Chemical potential (Fermi level):    -2.94478670eV
  Highest occupied state (VBM) at     -5.64703752 eV
  | Occupation number:      2.00000000

  Lowest unoccupied state (CBM) at    -1.45481468 eV
  | Occupation number:      0.00000000

  Overall HOMO-LUMO gap:      4.19222284 eV.

  Total energy components:
  | Sum of eigenvalues            :        -180.34761790 Ha       -4907.50837432 eV
  | XC energy correction          :         -42.62870607 Ha       -1159.98611151 eV
  | XC potential correction       :          54.80708649 Ha        1491.37670385 eV
  | Free-atom electrostatic energy:        -146.86585860 Ha       -3996.42334827 eV
  | Hartree energy correction     :          -8.43926641 Ha        -229.64412330 eV
  | vdW energy correction         :           0.00000000 Ha           0.00000000 eV
  | Entropy correction            :           0.00000000 Ha           0.00000000 eV
  | ---------------------------
  | Total energy                  :        -323.47436249 Ha       -8802.18525354 eV
  | Total energy, T -> 0          :        -323.47436249 Ha       -8802.18525354 eV  <-- do not rely on this value for anything but (periodic) metals
  | Electronic free energy        :        -323.47436249 Ha       -8802.18525354 eV

  Derived energy quantities:
  | Kinetic energy                :         323.19965383 Ha        8794.71005077 eV
  | Electrostatic energy          :        -604.04531026 Ha      -16436.90919280 eV
  | Energy correction for multipole
  | error in Hartree potential    :           0.03762560 Ha           1.02384479 eV
  | Sum of eigenvalues per atom                           :        -377.50064418 eV
  | Total energy (T->0) per atom                          :        -677.09117335 eV  <-- do not rely on this value for anything but (periodic) metals
  | Electronic free energy per atom                       :        -677.09117335 eV

  Self-consistency convergence accuracy:
  | Change of charge density      :  0.2075E+00
  | Change of sum of eigenvalues  :  0.3620E+02 eV
  | Change of total energy        :  0.3706E+00 eV

  End self-consistency iteration #     3       :  max(cpu_time)    wall_clock(cpu1)
  | Time for this iteration                    :        1.189 s           1.193 s
  | Charge density update                      :        0.389 s           0.389 s
  | Density mixing                             :        0.008 s           0.008 s
  | Hartree multipole update                   :        0.009 s           0.009 s
  | Hartree multipole summation                :        0.284 s           0.286 s
  | Integration                                :        0.497 s           0.499 s
  | Solution of K.-S. eqns.                    :        0.002 s           0.002 s
  | Total energy evaluation                    :        0.000 s           0.000 s

  Partial memory accounting:
  | Current value for overall tracked memory usage on task 0  :           0.166 MB
  | Peak value for overall tracked memory usage on task 0     :           0.695 MB after allocating gradient_basis_wave
  | Largest tracked array allocation on task 0 so far         :           0.397 MB  when allocating gradient_basis_wave
  Note:  These values currently only include a subset of arrays which are explicitly tracked.
  The "true" memory usage will be greater.
------------------------------------------------------------

------------------------------------------------------------
          Begin self-consistency iteration #    4

  Date     :  20200710, Time     :  151453.365
------------------------------------------------------------
  Evaluating new KS density.
  Integration grid: deviation in total charge (<rho> - N_e) =   1.421085E-14
  Pulay mixing of updated and previous charge densities.

  Evaluating partitioned Hartree potential by multipole expansion.
  | Analytical far-field extrapolation by fixed multipoles:
  | Hartree multipole sum: apparent total charge =  -0.460485E-03
  Summing up the Hartree potential.
  Time summed over all CPUs for potential: real work        0.283 s, elapsed        0.283 s
  | RMS charge density error from multipole expansion :   0.250942E-01

  Integrating Hamiltonian matrix: batch-based integration.
  Time summed over all CPUs for integration: real work        0.496 s, elapsed        0.496 s

  Updating Kohn-Sham eigenvalues and eigenvectors using ELSI and the ELPA eigensolver.
  Finished Cholesky decomposition
  | Time :     0.000 s
  Finished transformation to standard eigenproblem
  | Time :     0.000 s
  Starting LAPACK eigensolver
  Finished solving standard eigenproblem
  | Time :     0.002 s
  Finished back-transformation of eigenvectors
  | Time :     0.000 s

  Obtaining occupation numbers and chemical potential using ELSI.
  | Chemical potential (Fermi level):    -2.81526845eV
  Highest occupied state (VBM) at     -5.45063112 eV
  | Occupation number:      2.00000000

  Lowest unoccupied state (CBM) at    -1.34850073 eV
  | Occupation number:      0.00000000

  Overall HOMO-LUMO gap:      4.10213038 eV.

  Total energy components:
  | Sum of eigenvalues            :        -180.18057624 Ha       -4902.96293948 eV
  | XC energy correction          :         -42.66714114 Ha       -1161.03198315 eV
  | XC potential correction       :          54.85556633 Ha        1492.69590741 eV
  | Free-atom electrostatic energy:        -146.86585860 Ha       -3996.42334827 eV
  | Hartree energy correction     :          -8.61532562 Ha        -234.43493812 eV
  | vdW energy correction         :           0.00000000 Ha           0.00000000 eV
  | Entropy correction            :           0.00000000 Ha           0.00000000 eV
  | ---------------------------
  | Total energy                  :        -323.47333527 Ha       -8802.15730162 eV
  | Total energy, T -> 0          :        -323.47333527 Ha       -8802.15730162 eV  <-- do not rely on this value for anything but (periodic) metals
  | Electronic free energy        :        -323.47333527 Ha       -8802.15730162 eV

  Derived energy quantities:
  | Kinetic energy                :         322.81655962 Ha        8784.28552679 eV
  | Electrostatic energy          :        -603.62275375 Ha      -16425.41084525 eV
  | Energy correction for multipole
  | error in Hartree potential    :           0.04175451 Ha           1.13619790 eV
  | Sum of eigenvalues per atom                           :        -377.15099534 eV
  | Total energy (T->0) per atom                          :        -677.08902320 eV  <-- do not rely on this value for anything but (periodic) metals
  | Electronic free energy per atom                       :        -677.08902320 eV

  Self-consistency convergence accuracy:
  | Change of charge density      :  0.6635E-01
  | Change of sum of eigenvalues  :  0.4545E+01 eV
  | Change of total energy        :  0.2795E-01 eV

  End self-consistency iteration #     4       :  max(cpu_time)    wall_clock(cpu1)
  | Time for this iteration                    :        1.189 s           1.190 s
  | Charge density update                      :        0.389 s           0.389 s
  | Density mixing                             :        0.010 s           0.010 s
  | Hartree multipole update                   :        0.009 s           0.009 s
  | Hartree multipole summation                :        0.283 s           0.283 s
  | Integration                                :        0.496 s           0.496 s
  | Solution of K.-S. eqns.                    :        0.002 s           0.002 s
  | Total energy evaluation                    :        0.000 s           0.001 s

  Partial memory accounting:
  | Current value for overall tracked memory usage on task 0  :           0.166 MB
  | Peak value for overall tracked memory usage on task 0     :           0.696 MB after allocating gradient_basis_wave
  | Largest tracked array allocation on task 0 so far         :           0.397 MB  when allocating gradient_basis_wave
  Note:  These values currently only include a subset of arrays which are explicitly tracked.
  The "true" memory usage will be greater.
------------------------------------------------------------

------------------------------------------------------------
          Begin self-consistency iteration #    5

  Date     :  20200710, Time     :  151454.555
------------------------------------------------------------
  Evaluating new KS density.
  Integration grid: deviation in total charge (<rho> - N_e) =   1.421085E-14
  Pulay mixing of updated and previous charge densities.

  Evaluating partitioned Hartree potential by multipole expansion.
  | Analytical far-field extrapolation by fixed multipoles:
  | Hartree multipole sum: apparent total charge =  -0.454821E-03
  Summing up the Hartree potential.
  Time summed over all CPUs for potential: real work        0.283 s, elapsed        0.283 s
  | RMS charge density error from multipole expansion :   0.248743E-01

  Integrating Hamiltonian matrix: batch-based integration.
  Time summed over all CPUs for integration: real work        0.496 s, elapsed        0.496 s

  Updating Kohn-Sham eigenvalues and eigenvectors using ELSI and the ELPA eigensolver.
  Finished Cholesky decomposition
  | Time :     0.000 s
  Finished transformation to standard eigenproblem
  | Time :     0.000 s
  Starting LAPACK eigensolver
  Finished solving standard eigenproblem
  | Time :     0.002 s
  Finished back-transformation of eigenvectors
  | Time :     0.000 s

  Obtaining occupation numbers and chemical potential using ELSI.
  | Chemical potential (Fermi level):    -2.88919656eV
  Highest occupied state (VBM) at     -5.55550892 eV
  | Occupation number:      2.00000000

  Lowest unoccupied state (CBM) at    -1.45532749 eV
  | Occupation number:      0.00000000

  Overall HOMO-LUMO gap:      4.10018142 eV.

  Total energy components:
  | Sum of eigenvalues            :        -180.41052829 Ha       -4909.22025312 eV
  | XC energy correction          :         -42.63987469 Ha       -1160.29002530 eV
  | XC potential correction       :          54.82016724 Ha        1491.73264917 eV
  | Free-atom electrostatic energy:        -146.86585860 Ha       -3996.42334827 eV
  | Hartree energy correction     :          -8.37694728 Ha        -227.94833328 eV
  | vdW energy correction         :           0.00000000 Ha           0.00000000 eV
  | Entropy correction            :           0.00000000 Ha           0.00000000 eV
  | ---------------------------
  | Total energy                  :        -323.47304162 Ha       -8802.14931080 eV
  | Total energy, T -> 0          :        -323.47304162 Ha       -8802.14931080 eV  <-- do not rely on this value for anything but (periodic) metals
  | Electronic free energy        :        -323.47304162 Ha       -8802.14931080 eV

  Derived energy quantities:
  | Kinetic energy                :         322.67994642 Ha        8780.56809248 eV
  | Electrostatic energy          :        -603.51311334 Ha      -16422.42737799 eV
  | Energy correction for multipole
  | error in Hartree potential    :           0.04110001 Ha           1.11838814 eV
  | Sum of eigenvalues per atom                           :        -377.63232716 eV
  | Total energy (T->0) per atom                          :        -677.08840852 eV  <-- do not rely on this value for anything but (periodic) metals
  | Electronic free energy per atom                       :        -677.08840852 eV

  Self-consistency convergence accuracy:
  | Change of charge density      :  0.2014E-01
  | Change of sum of eigenvalues  : -0.6257E+01 eV
  | Change of total energy        :  0.7991E-02 eV

  End self-consistency iteration #     5       :  max(cpu_time)    wall_clock(cpu1)
  | Time for this iteration                    :        1.190 s           1.191 s
  | Charge density update                      :        0.388 s           0.389 s
  | Density mixing                             :        0.011 s           0.011 s
  | Hartree multipole update                   :        0.009 s           0.009 s
  | Hartree multipole summation                :        0.283 s           0.284 s
  | Integration                                :        0.496 s           0.495 s
  | Solution of K.-S. eqns.                    :        0.002 s           0.003 s
  | Total energy evaluation                    :        0.000 s           0.000 s

  Partial memory accounting:
  | Current value for overall tracked memory usage on task 0  :           0.166 MB
  | Peak value for overall tracked memory usage on task 0     :           0.696 MB after allocating gradient_basis_wave
  | Largest tracked array allocation on task 0 so far         :           0.397 MB  when allocating gradient_basis_wave
  Note:  These values currently only include a subset of arrays which are explicitly tracked.
  The "true" memory usage will be greater.
------------------------------------------------------------

------------------------------------------------------------
          Begin self-consistency iteration #    6

  Date     :  20200710, Time     :  151455.747
------------------------------------------------------------
  Evaluating new KS density.
  Integration grid: deviation in total charge (<rho> - N_e) =   0.000000E+00
  Pulay mixing of updated and previous charge densities.

  Evaluating partitioned Hartree potential by multipole expansion.
  | Analytical far-field extrapolation by fixed multipoles:
  | Hartree multipole sum: apparent total charge =  -0.459810E-03
  Summing up the Hartree potential.
  Time summed over all CPUs for potential: real work        0.283 s, elapsed        0.283 s
  | RMS charge density error from multipole expansion :   0.253444E-01

  Integrating Hamiltonian matrix: batch-based integration.
  Time summed over all CPUs for integration: real work        0.502 s, elapsed        0.502 s

  Updating Kohn-Sham eigenvalues and eigenvectors using ELSI and the ELPA eigensolver.
  Finished Cholesky decomposition
  | Time :     0.000 s
  Finished transformation to standard eigenproblem
  | Time :     0.000 s
  Starting LAPACK eigensolver
  Finished solving standard eigenproblem
  | Time :     0.001 s
  Finished back-transformation of eigenvectors
  | Time :     0.000 s

  Obtaining occupation numbers and chemical potential using ELSI.
  | Chemical potential (Fermi level):    -2.87057831eV
  Highest occupied state (VBM) at     -5.50777577 eV
  | Occupation number:      2.00000000

  Lowest unoccupied state (CBM) at    -1.44846392 eV
  | Occupation number:      0.00000000

  Overall HOMO-LUMO gap:      4.05931185 eV.

  Total energy components:
  | Sum of eigenvalues            :        -180.36686033 Ha       -4908.03198762 eV
  | XC energy correction          :         -42.64394878 Ha       -1160.40088678 eV
  | XC potential correction       :          54.82544101 Ha        1491.87615576 eV
  | Free-atom electrostatic energy:        -146.86585860 Ha       -3996.42334827 eV
  | Hartree energy correction     :          -8.42178014 Ha        -229.16829756 eV
  | vdW energy correction         :           0.00000000 Ha           0.00000000 eV
  | Entropy correction            :           0.00000000 Ha           0.00000000 eV
  | ---------------------------
  | Total energy                  :        -323.47300684 Ha       -8802.14836447 eV
  | Total energy, T -> 0          :        -323.47300684 Ha       -8802.14836447 eV  <-- do not rely on this value for anything but (periodic) metals
  | Electronic free energy        :        -323.47300684 Ha       -8802.14836447 eV

  Derived energy quantities:
  | Kinetic energy                :         322.62356312 Ha        8779.03382490 eV
  | Electrostatic energy          :        -603.45262118 Ha      -16420.78130259 eV
  | Energy correction for multipole
  | error in Hartree potential    :           0.04160194 Ha           1.13204629 eV
  | Sum of eigenvalues per atom                           :        -377.54092212 eV
  | Total energy (T->0) per atom                          :        -677.08833573 eV  <-- do not rely on this value for anything but (periodic) metals
  | Electronic free energy per atom                       :        -677.08833573 eV

  Self-consistency convergence accuracy:
  | Change of charge density      :  0.1036E-01
  | Change of sum of eigenvalues  :  0.1188E+01 eV
  | Change of total energy        :  0.9463E-03 eV

  End self-consistency iteration #     6       :  max(cpu_time)    wall_clock(cpu1)
  | Time for this iteration                    :        1.190 s           1.199 s
  | Charge density update                      :        0.389 s           0.390 s
  | Density mixing                             :        0.012 s           0.012 s
  | Hartree multipole update                   :        0.009 s           0.009 s
  | Hartree multipole summation                :        0.283 s           0.283 s
  | Integration                                :        0.496 s           0.502 s
  | Solution of K.-S. eqns.                    :        0.002 s           0.002 s
  | Total energy evaluation                    :        0.000 s           0.000 s

  Partial memory accounting:
  | Current value for overall tracked memory usage on task 0  :           0.166 MB
  | Peak value for overall tracked memory usage on task 0     :           0.696 MB after allocating gradient_basis_wave
  | Largest tracked array allocation on task 0 so far         :           0.397 MB  when allocating gradient_basis_wave
  Note:  These values currently only include a subset of arrays which are explicitly tracked.
  The "true" memory usage will be greater.
------------------------------------------------------------

------------------------------------------------------------
          Begin self-consistency iteration #    7

  Date     :  20200710, Time     :  151456.946
------------------------------------------------------------
  Evaluating new KS density.
  Integration grid: deviation in total charge (<rho> - N_e) =   4.973799E-14
  Pulay mixing of updated and previous charge densities.

  Evaluating partitioned Hartree potential by multipole expansion.
  | Analytical far-field extrapolation by fixed multipoles:
  | Hartree multipole sum: apparent total charge =  -0.460489E-03
  Summing up the Hartree potential.
  Time summed over all CPUs for potential: real work        0.283 s, elapsed        0.283 s
  | RMS charge density error from multipole expansion :   0.254207E-01

  Integrating Hamiltonian matrix: batch-based integration.
  Time summed over all CPUs for integration: real work        0.496 s, elapsed        0.496 s

  Updating Kohn-Sham eigenvalues and eigenvectors using ELSI and the ELPA eigensolver.
  Finished Cholesky decomposition
  | Time :     0.000 s
  Finished transformation to standard eigenproblem
  | Time :     0.000 s
  Starting LAPACK eigensolver
  Finished solving standard eigenproblem
  | Time :     0.001 s
  Finished back-transformation of eigenvectors
  | Time :     0.000 s

[...]
  |   Hirshfeld dipole moment :      0.05958033
  |   Hirshfeld second moments:      0.01452233      -0.03054198      -0.01902571
  |                                 -0.03054198      -0.02505326       0.00672818
  |                                 -0.01902571       0.00672818      -0.01954437
  ----------------------------------------------------------------------
  | Atom    12: O
  |   Hirshfeld charge        :     -0.17538775
  |   Free atom volume        :     23.61338643
  |   Hirshfeld volume        :     21.26742545
  |   Hirshfeld dipole vector :      0.00314156       0.03322911       0.02814150
  |   Hirshfeld dipole moment :      0.04365761
  |   Hirshfeld second moments:      0.11034432       0.00170011      -0.01000645
  |                                  0.00170011       0.02518725       0.01695333
  |                                 -0.01000645       0.01695333       0.00405169
  ----------------------------------------------------------------------
  | Atom    13: H
  |   Hirshfeld charge        :      0.18379681
  |   Free atom volume        :      9.95071624
  |   Hirshfeld volume        :      6.19278119
  |   Hirshfeld dipole vector :     -0.12330928       0.03178530       0.03414145
  |   Hirshfeld dipole moment :      0.13183749
  |   Hirshfeld second moments:      0.12473305       0.00442872      -0.00035829
  |                                  0.00442872       0.11643458       0.00594918
  |                                 -0.00035829       0.00594918       0.10402598
  ----------------------------------------------------------------------


  Total energy components:
  | Sum of eigenvalues            :        -180.37352130 Ha       -4908.21324163 eV
  | XC energy correction          :         -42.63981068 Ha       -1160.28828336 eV
  | XC potential correction       :          54.82017332 Ha        1491.73281463 eV
  | Free-atom electrostatic energy:        -146.86585860 Ha       -3996.42334827 eV
  | Hartree energy correction     :          -8.41396139 Ha        -228.95553852 eV
  | vdW energy correction         :          -0.00341955 Ha          -0.09305056 eV
  | Entropy correction            :           0.00000000 Ha           0.00000000 eV
  | ---------------------------
  | Total energy                  :        -323.47639819 Ha       -8802.24064773 eV
  | Total energy, T -> 0          :        -323.47639819 Ha       -8802.24064773 eV  <-- do not rely on this value for anything but (periodic) metals
  | Electronic free energy        :        -323.47639819 Ha       -8802.24064773 eV

  Derived energy quantities:
  | Kinetic energy                :         322.58458651 Ha        8777.97321730 eV
  | Electrostatic energy          :        -603.41775447 Ha      -16419.83253110 eV
  | Energy correction for multipole
  | error in Hartree potential    :           0.04160528 Ha           1.13213738 eV
  | Sum of eigenvalues per atom                           :        -377.55486474 eV
  | Total energy (T->0) per atom                          :        -677.09543444 eV  <-- do not rely on this value for anything but (periodic) metals
  | Electronic free energy per atom                       :        -677.09543444 eV

  atomic forces [eV/Ang]:
  -----------------------
  atom #    1
   Hellmann-Feynman              :  0.738360E+00  0.140312E-01  0.776584E+00
   Ionic forces                  :  0.000000E+00  0.000000E+00  0.000000E+00
   Multipole                     :  0.600513E-01  0.522322E+00 -0.259848E+00
   Pulay + GGA                   : -0.104012E+01 -0.856363E-01 -0.121630E+01
   Van der Waals                 :  0.654119E-02  0.484866E-02 -0.225482E-02
   ----------------------------------------------------------------
   Total forces(   1)            : -0.235169E+00  0.455566E+00 -0.701819E+00
  atom #    2
   Hellmann-Feynman              :  0.280830E+00 -0.155667E-02  0.508668E-01
   Ionic forces                  :  0.000000E+00  0.000000E+00  0.000000E+00
   Multipole                     :  0.185651E+00  0.451979E-01  0.130421E-01
   Pulay + GGA                   : -0.134135E+00  0.792234E-02  0.416543E-01
   Van der Waals                 :  0.458110E-02 -0.420323E-02 -0.609492E-02
   ----------------------------------------------------------------
   Total forces(   2)            :  0.336927E+00  0.473603E-01  0.994683E-01
  atom #    3
   Hellmann-Feynman              : -0.543814E+01 -0.988564E+01 -0.102716E+01
   Ionic forces                  :  0.000000E+00  0.000000E+00  0.000000E+00
   Multipole                     : -0.165684E+00  0.107658E+00 -0.851309E+00
   Pulay + GGA                   :  0.580859E+01  0.961055E+01  0.256257E+01
   Van der Waals                 :  0.447543E-02 -0.433838E-02 -0.950040E-02
   ----------------------------------------------------------------
   Total forces(   3)            :  0.209236E+00 -0.171766E+00  0.674599E+00
  atom #    4
   Hellmann-Feynman              :  0.152350E+00  0.174703E+00 -0.186957E+00
   Ionic forces                  :  0.000000E+00  0.000000E+00  0.000000E+00
   Multipole                     : -0.553730E-01  0.661489E-01 -0.804463E-01
   Pulay + GGA                   :  0.810218E-01 -0.215674E+00  0.226244E-01
   Van der Waals                 : -0.130335E-02 -0.922393E-02 -0.441141E-02
   ----------------------------------------------------------------
   Total forces(   4)            :  0.176696E+00  0.159539E-01 -0.249190E+00
  atom #    5
   Hellmann-Feynman              : -0.812135E-02  0.235676E+00 -0.222375E+00
   Ionic forces                  :  0.000000E+00  0.000000E+00  0.000000E+00
   Multipole                     :  0.364585E-01  0.251789E-01 -0.112408E+00
   Pulay + GGA                   : -0.188356E+00 -0.107874E+00  0.121032E+00
   Van der Waals                 : -0.401541E-02 -0.846643E-03  0.635170E-02
   ----------------------------------------------------------------
   Total forces(   5)            : -0.164035E+00  0.152134E+00 -0.207399E+00
  atom #    6
   Hellmann-Feynman              :  0.332851E+00 -0.538836E+00  0.379772E+00
   Ionic forces                  :  0.000000E+00  0.000000E+00  0.000000E+00
   Multipole                     : -0.472754E-01  0.576883E+00  0.242178E+00
   Pulay + GGA                   :  0.461123E-01 -0.479081E+00 -0.353200E+00
   Van der Waals                 : -0.397785E-02  0.412152E-02 -0.161919E-02
   ----------------------------------------------------------------
   Total forces(   6)            :  0.327710E+00 -0.436911E+00  0.267130E+00
  atom #    7
   Hellmann-Feynman              : -0.267368E+00 -0.570664E-01 -0.424306E-01
   Ionic forces                  :  0.000000E+00  0.000000E+00  0.000000E+00
   Multipole                     : -0.119327E+00  0.498724E-01  0.270023E-01
   Pulay + GGA                   :  0.106166E+00  0.250612E-01  0.278829E-01
   Van der Waals                 : -0.313733E-02  0.167569E-02  0.848954E-02
   ----------------------------------------------------------------
   Total forces(   7)            : -0.283666E+00  0.195429E-01  0.209441E-01
  atom #    8
   Hellmann-Feynman              : -0.132672E-02  0.107002E-01  0.214921E+00
   Ionic forces                  :  0.000000E+00  0.000000E+00  0.000000E+00
   Multipole                     :  0.173637E-01  0.635279E-01  0.116503E+00
   Pulay + GGA                   : -0.435857E-01 -0.489532E-01 -0.115013E+00
   Van der Waals                 : -0.317232E-02  0.112496E-01  0.559222E-03
   ----------------------------------------------------------------
   Total forces(   8)            : -0.307210E-01  0.365244E-01  0.216970E+00
  atom #    9
   Hellmann-Feynman              :  0.104747E+00  0.603056E-01 -0.164990E+00
   Ionic forces                  :  0.000000E+00  0.000000E+00  0.000000E+00
   Multipole                     :  0.170288E-01  0.128159E+00 -0.119512E-01
   Pulay + GGA                   : -0.311338E-01 -0.908169E-01  0.530804E-01
   Van der Waals                 :  0.362658E-03  0.602748E-02  0.697108E-02
   ----------------------------------------------------------------
   Total forces(   9)            :  0.910048E-01  0.103675E+00 -0.116890E+00
  atom #   10
   Hellmann-Feynman              :  0.271599E+01  0.512364E+01  0.163089E+01
   Ionic forces                  :  0.000000E+00  0.000000E+00  0.000000E+00
   Multipole                     :  0.115833E+00 -0.143351E+00  0.319692E+00
   Pulay + GGA                   : -0.841451E+00 -0.334176E+01 -0.455993E+00
   Van der Waals                 :  0.292377E-02 -0.114451E-01 -0.285070E-02
   ----------------------------------------------------------------
   Total forces(  10)            :  0.199330E+01  0.162708E+01  0.149174E+01
  atom #   11
   Hellmann-Feynman              :  0.397779E+01 -0.214507E+01  0.137841E+02
   Ionic forces                  :  0.000000E+00  0.000000E+00  0.000000E+00
   Multipole                     :  0.464754E-01 -0.689949E+00  0.778072E+00
   Pulay + GGA                   : -0.310670E+01  0.364146E+01 -0.134043E+02
   Van der Waals                 : -0.109443E-02 -0.119512E-01  0.411734E-02
   ----------------------------------------------------------------
   Total forces(  11)            :  0.916472E+00  0.794487E+00  0.116202E+01
  atom #   12
   Hellmann-Feynman              :  0.172636E+01 -0.113765E+02 -0.110152E+02
   Ionic forces                  :  0.000000E+00  0.000000E+00  0.000000E+00
   Multipole                     : -0.627996E+00 -0.137157E+01 -0.474845E+00
   Pulay + GGA                   : -0.361347E+01  0.108942E+02  0.934042E+01
   Van der Waals                 :  0.166671E-02  0.108359E-01  0.599990E-03
   ----------------------------------------------------------------
   Total forces(  12)            : -0.251343E+01 -0.184307E+01 -0.214899E+01
  atom #   13
   Hellmann-Feynman              : -0.115339E+01 -0.642476E+00 -0.380147E+00
   Ionic forces                  :  0.000000E+00  0.000000E+00  0.000000E+00
   Multipole                     : -0.470076E-01  0.118679E-01  0.922879E-02
   Pulay + GGA                   :  0.376477E+00 -0.171704E+00 -0.140097E+00
   Van der Waals                 : -0.385018E-02  0.324960E-02 -0.357430E-03
   ----------------------------------------------------------------
   Total forces(  13)            : -0.827768E+00 -0.799062E+00 -0.511372E+00

  Timings for VdW correction (Tkatchenko-Scheffler 2009 or later):
  | CPU time:        0.090 s, Wall clock time:        0.091 s.
  Removing unitary transformations (pure translations, rotations) from forces on atoms.
  Atomic forces before filtering:
  | Net force on center of mass :  -0.344797E-02  0.151246E-02 -0.279022E-02 eV/A
  | Net torque on center of mass:  -0.765313E-02  0.152515E-02 -0.632436E-02 eV
  Atomic forces after filtering:
  | Net force on center of mass :   0.178406E-15  0.267609E-15 -0.178406E-15 eV/A
  | Net torque on center of mass:   0.000000E+00  0.472042E-15 -0.566451E-15 eV

  Energy and forces in a compact form:
  | Total energy uncorrected      :         -0.880224064772528E+04 eV
  | Total energy corrected        :         -0.880224064772528E+04 eV  <-- do not rely on this value for anything but (periodic) metals
  | Electronic free energy        :         -0.880224064772528E+04 eV
  Total atomic forces (unitary forces cleaned) [eV/Ang]:
  |   1         -0.234896687741354E+00          0.455569133741822E+00         -0.701579164261705E+00
  |   2          0.337198632452845E+00          0.475903902333714E-01          0.997662213491590E-01
  |   3          0.209583691959776E+00         -0.171595701813522E+00          0.674812994927788E+00
  |   4          0.176886374303866E+00          0.160172903361913E-01         -0.248861110034399E+00
  |   5         -0.163672818379492E+00          0.152587517916741E+00         -0.207125177279629E+00
  |   6          0.327680709920046E+00         -0.437148455205417E+00          0.267581601479335E+00
  |   7         -0.283700872174522E+00          0.190764838330850E-01          0.213419672044452E-01
  |   8         -0.308075563578800E-01          0.361678645834607E-01          0.217443186286139E+00
  |   9          0.908164938814646E-01          0.103608538523812E+00         -0.116249781847777E+00
  |  10          0.199379808521331E+01          0.162685646767292E+01          0.149171555118846E+01
  |  11          0.916968100661206E+00          0.794114196861846E+00          0.116195579182772E+01
  |  12         -0.251272327557540E+01         -0.184330438550696E+01         -0.214921312686117E+01
  |  13         -0.827130878163861E+00         -0.799539341177343E+00         -0.511588953978360E+00

  ------------------------------------ 
  Start decomposition of the XC Energy 
  ------------------------------------ 
  X and C from original XC functional choice 
  Hartree-Fock Energy :          0.000000000 Ha              0.000000000 eV
  X Energy            :        -41.039214296 Ha          -1116.733839775 eV
  C Energy            :         -1.600596382 Ha            -43.554443586 eV
  Total XC Energy     :        -42.639810678 Ha          -1160.288283361 eV
  ------------------------------------ 
  LDA X and C from self-consistent density 
  X Energy LDA        :        -37.257522756 Ha          -1013.828777218 eV
  C Energy LDA        :         -3.138669795 Ha            -85.407550601 eV
  ------------------------------------ 
  End decomposition of the XC Energy 
  ------------------------------------ 

------------------------------------------------------------

------------------------------------------------------------------------------
  Final output of selected total energy values:

  The following output summarizes some interesting total energy values
  at the end of a run (AFTER all relaxation, molecular dynamics, etc.).

  | Total energy of the DFT / Hartree-Fock s.c.f. calculation      :          -8802.240647725 eV
  | Final zero-broadening corrected energy (caution - metals only) :          -8802.240647725 eV
  | For reference only, the value of 1 Hartree used in FHI-aims is :             27.211384500 eV

  Before relying on these values, please be sure to understand exactly which
  total energy value is referred to by a given number. Different objects may
  all carry the same name 'total energy'. Definitions:

  Total energy of the DFT / Hartree-Fock s.c.f. calculation:
  | Note that this energy does not include ANY quantities calculated after the
  | s.c.f. cycle, in particular not ANY RPA, MP2, etc. many-body perturbation terms.

  Final zero-broadening corrected energy:
  | For metallic systems only, a broadening of the occupation numbers at the Fermi
  | level can be extrapolated back to zero broadening by an electron-gas inspired
  | formula. For all systems that are not real metals, this value can be
  | meaningless and should be avoided.

------------------------------------------------------------------------------
  Methods described in the following list of references were used in this FHI-aims run.
  If you publish the results, please make sure to cite these reference if they apply.
  FHI-aims is an academic code, and for our developers (often, Ph.D. students
  and postdocs), scientific credit in the community is essential.
  Thank you for helping us!

  For any use of FHI-aims, please cite:

    Volker Blum, Ralf Gehrke, Felix Hanke, Paula Havu, Ville Havu,
    Xinguo Ren, Karsten Reuter, and Matthias Scheffler
    'Ab initio molecular simulations with numeric atom-centered orbitals'
    Computer Physics Communications 180, 2175-2196 (2009)
    http://dx.doi.org/10.1016/j.cpc.2009.06.022


  The scalable eigensolver library ELPA was used in your run.
  ELPA is essential especially for large systems on hundreds or thousands of CPUs.
  For ELPA, please cite:

    Andreas Marek, Volker Blum, Rainer Johanni, Ville Havu, Bruno Lang,
    Thomas Auckenthaler, Alexander Heinecke, Hans-Joachim Bungartz, and Hermann Lederer,
    'The ELPA Library - Scalable Parallel Eigenvalue Solutions
    for Electronic Structure Theory and Computational Science'
    The Journal of Physics: Condensed Matter 26, 213201 (2014).
    http://dx.doi.org/10.1088/0953-8984/26/21/213201


  The ELSI infrastructure was used in your run to solve the Kohn-Sham electronic structure.
  Please check out http://elsi-interchange.org to learn more.
  If scalability is important for your project, please acknowledge ELSI by citing:

    V. W-z. Yu, F. Corsetti, A. Garcia, W. P. Huhn, M. Jacquelin, W. Jia,
    B. Lange, L. Lin, J. Lu, W. Mi, A. Seifitokaldani, A. Vazquez-Mayagoitia,
    C. Yang, H. Yang, and V. Blum
    'ELSI: A unified software interface for Kohn-Sham electronic structure solvers'
    Computer Physics Communications 222, 267-285 (2018).
    http://dx.doi.org/10.1016/j.cpc.2017.09.007


  For the real-space grid partitioning and parallelization used in this calculation, please cite:

    Ville Havu, Volker Blum, Paula Havu, and Matthias Scheffler,
    'Efficient O(N) integration for all-electron electronic structure calculation'
    'using numerically tabulated basis functions'
    Journal of Computational Physics 228, 8367-8379 (2009).
    http://dx.doi.org/10.1016/j.jcp.2009.08.008

  Of course, there are many other important community references, e.g., those cited in the
  above references. Our list is limited to references that describe implementations in the
  FHI-aims code. The reason is purely practical (length of this list) - please credit others as well.

------------------------------------------------------------
          Leaving FHI-aims.
          Date     :  20200710, Time     :  151511.293

          Computational steps:
          | Number of self-consistency cycles          :           16
          | Number of SCF (re)initializations          :            1

          Detailed time accounting                     :  max(cpu_time)    wall_clock(cpu1)
          | Total time                                 :       22.782 s          22.848 s
          | Preparation time                           :        0.148 s           0.150 s
          | Boundary condition initalization           :        0.000 s           0.000 s
          | Grid partitioning                          :        0.112 s           0.112 s
          | Preloading free-atom quantities on grid    :        0.002 s           0.003 s
          | Free-atom superposition energy             :        0.086 s           0.086 s
          | Total time for integrations                :        8.664 s           8.683 s
          | Total time for solution of K.-S. equations :        0.038 s           0.041 s
          | Total time for density & force components  :        7.182 s           7.204 s
          | Total time for mixing                      :        0.216 s           0.215 s
          | Total time for Hartree multipole update    :        0.140 s           0.143 s
          | Total time for Hartree multipole sum       :        5.794 s           5.798 s
          | Total time for total energy evaluation     :        0.003 s           0.003 s
          | Total time for vdW correction              :        0.090 s           0.091 s

          Partial memory accounting:
          | Residual value for overall tracked memory usage across tasks :           0.000 MB (should be 0.000 MB)
          | Peak values for overall tracked memory usage (after allocating hessian_basis_wave):
          |   Minimum:        1.622 MB (on task 1)
          |   Maximum:        1.622 MB (on task 1)
          |   Average:        1.622 MB
          | Largest tracked array allocation (hessian_basis_wave):
          |   Minimum:        0.794 MB (on task 1)
          |   Maximum:        0.794 MB (on task 1)
          |   Average:        0.794 MB
          Note:  These values currently only include a subset of arrays which are explicitly tracked.
          The "true" memory usage will be greater.

          Have a nice day.
------------------------------------------------------------
