  MPI-parallelism will be employed.
------------------------------------------------------------
          Invoking FHI-aims ...
          Version 171221_1
          Compiled on 2019/09/09 at 14:39:39 on host puhti-login2.bullx.

          When using FHI-aims, please cite the following reference:

          Volker Blum, Ralf Gehrke, Felix Hanke, Paula Havu,
          Ville Havu, Xinguo Ren, Karsten Reuter, and Matthias Scheffler,
          'Ab Initio Molecular Simulations with Numeric Atom-Centered Orbitals',
          Computer Physics Communications 180, 2175-2196 (2009)

          For any questions about FHI-aims, please visit the aimsclub website
          with its forums and wiki. Contributions to both the forums and the
          wiki are warmly encouraged - they are for you, and everyone is welcome there.

------------------------------------------------------------



  Date     :  20200710, Time     :  143220.425
  Time zero on CPU 1             :   0.115380000000000E-01  s.
  Internal wall clock time zero  :           363623540.425  s.

  FHI-aims created a unique identifier for this run for later identification
  aims_uuid : 08F1FA1C-37AF-43F4-ABB7-3958E7575284

  Using        1 parallel tasks.
  Task        0 on host r18c47.bullx reporting.

  Performing system and environment tests:
  | Environment variable OMP_NUM_THREADS correctly set to 1.
  | Stacksize not measured: no C compiler
  | Checking for scalapack...
  | Testing pdtran()...
  | All pdtran() tests passed.

  Obtaining array dimensions for all initial allocations:
  
  -----------------------------------------------------------------------
  Parsing control.in (first pass over file, find array dimensions only).
  The contents of control.in will be repeated verbatim below
  unless switched off by setting 'verbatim_writeout .false.' .
  in the first line of control.in .
  -----------------------------------------------------------------------
  
  #########################################################################################
  #
  #  Volker Blum, FHI 2009 : Test run input file control.in for simple H2O
  #
  #########################################################################################
  #
  #  Physical model
  #
    xc                 pbe
    vdw_correction_hirshfeld
    spin               none
    relativistic       none
    charge             0.
  #
  #  SCF convergence
  #
    occupation_type    gaussian 0.01
    mixer              pulay
      n_max_pulay        10
      charge_mix_param   0.2
    sc_accuracy_rho    1E-5
    sc_accuracy_eev    1E-3
    sc_accuracy_etot   1E-6
    sc_accuracy_forces 1E-4
    sc_iter_limit      100
  #
  #  Relaxation
  #
  #  relax_geometry   bfgs 1.e-3
  #
  ################################################################################
  #
  #  FHI-aims code project
  #  VB, Fritz-Haber Institut, 2009
  #
  #  Suggested "light" defaults for H atom (to be pasted into control.in file)
  #  Be sure to double-check any results obtained with these settings for post-processing,
  #  e.g., with the "tight" defaults and larger basis sets.
  #
  ################################################################################
    species        H
  #     global species definitions
      nucleus             1
      mass                1.00794
  #
      l_hartree           4
  #
      cut_pot             3.5  1.5  1.0
      basis_dep_cutoff    1e-4
  #
      radial_base         24 5.0
      radial_multiplier   1
      angular_grids       specified
        division   0.2421   50
        division   0.3822  110
        division   0.4799  194
        division   0.5341  302
  #      division   0.5626  434
  #      division   0.5922  590
  #      division   0.6542  770
  #      division   0.6868 1202
  #      outer_grid  770
        outer_grid  302
  ################################################################################
  #
  #  Definition of "minimal" basis
  #
  ################################################################################
  #     valence basis states
      valence      1  s   1.
  #     ion occupancy
      ion_occ      1  s   0.5
  ################################################################################
  #
  #  Suggested additional basis functions. For production calculations,
  #  uncomment them one after another (the most important basis functions are
  #  listed first).
  #
  #  Basis constructed for dimers: 0.5 A, 0.7 A, 1.0 A, 1.5 A, 2.5 A
  #
  ################################################################################
  #  "First tier" - improvements: -1014.90 meV to -62.69 meV
       hydro 2 s 2.1
       hydro 2 p 3.5
  #  "Second tier" - improvements: -12.89 meV to -1.83 meV
  #     hydro 1 s 0.85
  #     hydro 2 p 3.7
  #     hydro 2 s 1.2
  #     hydro 3 d 7
  #  "Third tier" - improvements: -0.25 meV to -0.12 meV
  #     hydro 4 f 11.2
  #     hydro 3 p 4.8
  #     hydro 4 d 9
  #     hydro 3 s 3.2
  ################################################################################
  #
  #  FHI-aims code project
  #  VB, Fritz-Haber Institut, 2009
  #
  #  Suggested "light" defaults for C atom (to be pasted into control.in file)
  #  Be sure to double-check any results obtained with these settings for post-processing,
  #  e.g., with the "tight" defaults and larger basis sets.
  #
  ################################################################################
    species        C
  #     global species definitions
      nucleus             6
      mass                12.0107
  #
      l_hartree           4
  #
      cut_pot             3.5  1.5  1.0
      basis_dep_cutoff    1e-4
  #
      radial_base         34 5.0
      radial_multiplier   1
      angular_grids specified
        division   0.3326   50
        division   0.5710  110
        division   0.7727  194
        division   0.8772  302
  #      division   0.9334  434
  #      division   0.9625  590
  #      division   0.9924  770
  #      division   1.0230  974
  #      division   1.4589 1202
  #     outer_grid  974
       outer_grid 302
  ################################################################################
  #
  #  Definition of "minimal" basis
  #
  ################################################################################
  #     valence basis states
      valence      2  s   2.
      valence      2  p   2.
  #     ion occupancy
      ion_occ      2  s   1.
      ion_occ      2  p   1.
  ################################################################################
  #
  #  Suggested additional basis functions. For production calculations,
  #  uncomment them one after another (the most important basis functions are
  #  listed first).
  #
  #  Constructed for dimers: 1.0 A, 1.25 A, 1.5 A, 2.0 A, 3.0 A
  #
  ################################################################################
  #  "First tier" - improvements: -1214.57 meV to -155.61 meV
       hydro 2 p 1.7
       hydro 3 d 6
       hydro 2 s 4.9
  #  "Second tier" - improvements: -67.75 meV to -5.23 meV
  #     hydro 4 f 9.8
  #     hydro 3 p 5.2
  #     hydro 3 s 4.3
  #     hydro 5 g 14.4
  #     hydro 3 d 6.2
  #  "Third tier" - improvements: -2.43 meV to -0.60 meV
  #     hydro 2 p 5.6
  #     hydro 2 s 1.4
  #     hydro 3 d 4.9
  #     hydro 4 f 11.2
  #  "Fourth tier" - improvements: -0.39 meV to -0.18 meV
  #     hydro 2 p 2.1
  #     hydro 5 g 16.4
  #     hydro 4 d 13.2
  #     hydro 3 s 13.6
  #     hydro 4 f 17.6
  #  Further basis functions - improvements: -0.08 meV and below
  #     hydro 3 s 2
  #     hydro 3 p 6
  #     hydro 4 d 20
  ################################################################################
  #
  #  FHI-aims code project
  #  VB, Fritz-Haber Institut, 2009
  #
  #  Suggested "light" defaults for N atom (to be pasted into control.in file)
  #  Be sure to double-check any results obtained with these settings for post-processing,
  #  e.g., with the "tight" defaults and larger basis sets.
  #
  ################################################################################
    species        N
  #     global species definitions
      nucleus             7
      mass                14.0067
  #
      l_hartree           4
  #
      cut_pot             3.5  1.5  1.0
      basis_dep_cutoff    1e-4
  #
      radial_base         35 5.0
      radial_multiplier   1
      angular_grids       specified
        division   0.2599   50
        division   0.4601  110
        division   0.5885  194
        division   0.6503  302
  #      division   0.6939  434
  #      division   0.7396  590
  #      division   0.7632  770
  #      division   0.8122  974
  #      division   1.1604 1202
  #      outer_grid  974
        outer_grid  302
  ################################################################################
  #
  #  Definition of "minimal" basis
  #
  ################################################################################
  #     valence basis states
      valence      2  s   2.
      valence      2  p   3.
  #     ion occupancy
      ion_occ      2  s   1.
      ion_occ      2  p   2.
  ################################################################################
  #
  #  Suggested additional basis functions. For production calculations,
  #  uncomment them one after another (the most important basis functions are
  #  listed first).
  #
  #  Constructed for dimers: 1.0 A, 1.1 A, 1.5 A, 2.0 A, 3.0 A
  #
  ################################################################################
  #  "First tier" - improvements: -1193.42 meV to -220.60 meV
       hydro 2 p 1.8
       hydro 3 d 6.8
       hydro 3 s 5.8
  #  "Second tier" - improvements: -80.21 meV to -6.86 meV
  #     hydro 4 f 10.8
  #     hydro 3 p 5.8
  #     hydro 1 s 0.8
  #     hydro 5 g 16
  #     hydro 3 d 4.9
  #  "Third tier" - improvements: -4.29 meV to -0.53 meV
  #     hydro 3 s 16
  #     ionic 2 p auto
  #     hydro 3 d 6.6
  #     hydro 4 f 11.6
  #  "Fourth tier" - improvements: -0.75 meV to -0.25 meV
  #     hydro 2 p 4.5
  #     hydro 2 s 2.4
  #     hydro 5 g 14.4
  #     hydro 4 d 14.4
  #     hydro 4 f 16.8
  # Further basis functions - -0.21 meV and below
  #     hydro 3 p 14.8
  #     hydro 3 s 4.4
  #     hydro 3 d 19.6
  #     hydro 5 g 12.8
  ################################################################################
  #
  #  FHI-aims code project
  #  VB, Fritz-Haber Institut, 2009
  #
  #  Suggested "light" defaults for O atom (to be pasted into control.in file)
  #  Be sure to double-check any results obtained with these settings for post-processing,
  #  e.g., with the "tight" defaults and larger basis sets.
  #
  ################################################################################
    species        O
  #     global species definitions
      nucleus             8
      mass                15.9994
  #
      l_hartree           4
  #
      cut_pot             3.5  1.5  1.0
      basis_dep_cutoff    1e-4
  #
      radial_base         36 5.0
      radial_multiplier   1
       angular_grids specified
        division   0.2659   50
        division   0.4451  110
        division   0.6052  194
        division   0.7543  302
  #      division   0.8014  434
  #      division   0.8507  590
  #      division   0.8762  770
  #      division   0.9023  974
  #      division   1.2339 1202
  #      outer_grid 974
        outer_grid 302
  ################################################################################
  #
  #  Definition of "minimal" basis
  #
  ################################################################################
  #     valence basis states
      valence      2  s   2.
      valence      2  p   4.
  #     ion occupancy
      ion_occ      2  s   1.
      ion_occ      2  p   3.
  ################################################################################
  #
  #  Suggested additional basis functions. For production calculations,
  #  uncomment them one after another (the most important basis functions are
  #  listed first).
  #
  #  Constructed for dimers: 1.0 A, 1.208 A, 1.5 A, 2.0 A, 3.0 A
  #
  ################################################################################
  #  "First tier" - improvements: -699.05 meV to -159.38 meV
       hydro 2 p 1.8
       hydro 3 d 7.6
       hydro 3 s 6.4
  #  "Second tier" - improvements: -49.91 meV to -5.39 meV
  #     hydro 4 f 11.6
  #     hydro 3 p 6.2
  #     hydro 3 d 5.6
  #     hydro 5 g 17.6
  #     hydro 1 s 0.75
  #  "Third tier" - improvements: -2.83 meV to -0.50 meV
  #     ionic 2 p auto
  #     hydro 4 f 10.8
  #     hydro 4 d 4.7
  #     hydro 2 s 6.8
  #  "Fourth tier" - improvements: -0.40 meV to -0.12 meV
  #     hydro 3 p 5
  #     hydro 3 s 3.3
  #     hydro 5 g 15.6
  #     hydro 4 f 17.6
  #     hydro 4 d 14
  # Further basis functions - -0.08 meV and below
  #     hydro 3 s 2.1
  #     hydro 4 d 11.6
  #     hydro 3 p 16
  #     hydro 2 s 17.2
  
  -----------------------------------------------------------------------
  Completed first pass over input file control.in .
  -----------------------------------------------------------------------
  
  
  -----------------------------------------------------------------------
  Parsing geometry.in (first pass over file, find array dimensions only).
  The contents of geometry.in will be repeated verbatim below
  unless switched off by setting 'verbatim_writeout .false.' .
  in the first line of geometry.in .
  -----------------------------------------------------------------------
  
  atom  0.00000 0.00000 0.00000 C
  atom  1.09300 0.00000 0.00000 H
  atom  -0.47961 0.00000 -1.41207 N
  atom  -1.48574 0.17183 -1.41578 H
  atom  0.00488 0.73590 -1.92182 H
  atom  -0.49584 1.26211 0.72868 C
  atom  -1.58789 1.28919 0.74431 H
  atom  -0.13407 1.27425 1.75947 H
  atom  -0.13407 2.16087 0.22380 H
  atom  -0.39425 -1.28861 0.74398 C
  atom  -0.10189 -1.56493 1.88303 O
  atom  -1.10210 -2.13717 0.06896 O
  atom  -0.91941 -1.79650 -0.82297 H
  
  -----------------------------------------------------------------------
  Completed first pass over input file geometry.in .
  -----------------------------------------------------------------------
  

  Basic array size parameters:
  | Number of species                 :        4
  | Number of atoms                   :       13
  | Max. basis fn. angular momentum   :        2
  | Max. atomic/ionic basis occupied n:        2
  | Max. number of basis fn. types    :        2
  | Max. radial fns per species/type  :        3
  | Max. logarithmic grid size        :     1301
  | Max. radial integration grid size :       36
  | Max. angular integration grid size:      302
  | Max. angular grid division number :        8
  | Radial grid for Hartree potential :     1301
  | Number of spin channels           :        1

------------------------------------------------------------
          Reading file control.in.
------------------------------------------------------------
  XC: Using PBE gradient-corrected functionals.
  Spin treatment: No spin polarisation.
  Non-relativistic treatment of kinetic energy.
  Charge =   0.000000E+00: Neutral system requested explicitly.
  Occupation type: Gaussian broadening, width =   0.100000E-01 eV.
  Using pulay charge density mixing.
  Pulay mixing - number of memorized iterations:   10
  Charge density mixing - mixing parameter:     0.2000
  Convergence accuracy of self-consistent charge density:  0.1000E-04
  Convergence accuracy of sum of eigenvalues:  0.1000E-02
  Convergence accuracy of total energy:  0.1000E-05
  Convergence accuracy of forces:  0.1000E-03
  Maximum number of s.-c. iterations  :   100
 
  Reading configuration options for species H                   .
  | Found nuclear charge :   1.0000
  | Found atomic mass :    1.00794000000000      amu
  | Found l_max for Hartree potential  :   4
  | Found cutoff potl. onset [A], width [A], scale factor :    3.50000    1.50000    1.00000
  | Threshold for basis-dependent cutoff potential is   0.100000E-03
  | Found data for basic radial integration grid :    24 points, outermost radius =    5.000 A
  | Found multiplier for basic radial grid :   1
  | Found angular grid specification: user-specified.
  | Specified grid contains     5 separate shells.
  | Check grid settings after all constraints further below.
  | Found free-atom valence shell :  1 s   1.000
  | No ionic wave fns used. Skipping ion_occ.
  | Found hydrogenic basis function :  2 s   2.100
  | Found hydrogenic basis function :  2 p   3.500
  Species H                   : Missing cutoff potential type.
  Defaulting to exp(1/x)/(1-x)^2 type cutoff potential.
  Species H : No 'logarithmic' tag. Using default grid for free atom:
  | Default logarithmic grid data [bohr] : 0.1000E-03 0.1000E+03 0.1012E+01
  Species H : On-site basis accuracy parameter (for Gram-Schmidt orthonormalisation) not specified.
  Using default value basis_acc =  0.1000000E-03.
  Species H                   : Using default innermost maximum threshold i_radial=  2 for radial functions.
  Species H                   : Default cutoff onset for free atom density etc. : 0.35000000E+01 AA.
  Species H                   : Basic radial grid will be enhanced according to radial_multiplier =   1, to contain    24 grid points.
 
  Reading configuration options for species C                   .
  | Found nuclear charge :   6.0000
  | Found atomic mass :    12.0107000000000      amu
  | Found l_max for Hartree potential  :   4
  | Found cutoff potl. onset [A], width [A], scale factor :    3.50000    1.50000    1.00000
  | Threshold for basis-dependent cutoff potential is   0.100000E-03
  | Found data for basic radial integration grid :    34 points, outermost radius =    5.000 A
  | Found multiplier for basic radial grid :   1
  | Found angular grid specification: user-specified.
  | Specified grid contains     5 separate shells.
  | Check grid settings after all constraints further below.
  | Found free-atom valence shell :  2 s   2.000
  | Found free-atom valence shell :  2 p   2.000
  | No ionic wave fns used. Skipping ion_occ.
  | No ionic wave fns used. Skipping ion_occ.
  | Found hydrogenic basis function :  2 p   1.700
  | Found hydrogenic basis function :  3 d   6.000
  | Found hydrogenic basis function :  2 s   4.900
  Species C                   : Missing cutoff potential type.
  Defaulting to exp(1/x)/(1-x)^2 type cutoff potential.
  Species C : No 'logarithmic' tag. Using default grid for free atom:
  | Default logarithmic grid data [bohr] : 0.1000E-03 0.1000E+03 0.1012E+01
  Species C : On-site basis accuracy parameter (for Gram-Schmidt orthonormalisation) not specified.
  Using default value basis_acc =  0.1000000E-03.
  Species C                   : Using default innermost maximum threshold i_radial=  2 for radial functions.
  Species C                   : Default cutoff onset for free atom density etc. : 0.35000000E+01 AA.
  Species C                   : Basic radial grid will be enhanced according to radial_multiplier =   1, to contain    34 grid points.
 
  Reading configuration options for species N                   .
  | Found nuclear charge :   7.0000
  | Found atomic mass :    14.0067000000000      amu
  | Found l_max for Hartree potential  :   4
  | Found cutoff potl. onset [A], width [A], scale factor :    3.50000    1.50000    1.00000
  | Threshold for basis-dependent cutoff potential is   0.100000E-03
  | Found data for basic radial integration grid :    35 points, outermost radius =    5.000 A
  | Found multiplier for basic radial grid :   1
  | Found angular grid specification: user-specified.
  | Specified grid contains     5 separate shells.
  | Check grid settings after all constraints further below.
  | Found free-atom valence shell :  2 s   2.000
  | Found free-atom valence shell :  2 p   3.000
  | No ionic wave fns used. Skipping ion_occ.
  | No ionic wave fns used. Skipping ion_occ.
  | Found hydrogenic basis function :  2 p   1.800
  | Found hydrogenic basis function :  3 d   6.800
  | Found hydrogenic basis function :  3 s   5.800
  Species N                   : Missing cutoff potential type.
  Defaulting to exp(1/x)/(1-x)^2 type cutoff potential.
  Species N : No 'logarithmic' tag. Using default grid for free atom:
  | Default logarithmic grid data [bohr] : 0.1000E-03 0.1000E+03 0.1012E+01
  Species N : On-site basis accuracy parameter (for Gram-Schmidt orthonormalisation) not specified.
  Using default value basis_acc =  0.1000000E-03.
  Species N                   : Using default innermost maximum threshold i_radial=  2 for radial functions.
  Species N                   : Default cutoff onset for free atom density etc. : 0.35000000E+01 AA.
  Species N                   : Basic radial grid will be enhanced according to radial_multiplier =   1, to contain    35 grid points.
 
  Reading configuration options for species O                   .
  | Found nuclear charge :   8.0000
  | Found atomic mass :    15.9994000000000      amu
  | Found l_max for Hartree potential  :   4
  | Found cutoff potl. onset [A], width [A], scale factor :    3.50000    1.50000    1.00000
  | Threshold for basis-dependent cutoff potential is   0.100000E-03
  | Found data for basic radial integration grid :    36 points, outermost radius =    5.000 A
  | Found multiplier for basic radial grid :   1
  | Found angular grid specification: user-specified.
  | Specified grid contains     5 separate shells.
  | Check grid settings after all constraints further below.
  | Found free-atom valence shell :  2 s   2.000
  | Found free-atom valence shell :  2 p   4.000
  | No ionic wave fns used. Skipping ion_occ.
  | No ionic wave fns used. Skipping ion_occ.
  | Found hydrogenic basis function :  2 p   1.800
  | Found hydrogenic basis function :  3 d   7.600
  | Found hydrogenic basis function :  3 s   6.400
  Species O                   : Missing cutoff potential type.
  Defaulting to exp(1/x)/(1-x)^2 type cutoff potential.
  Species O : No 'logarithmic' tag. Using default grid for free atom:
  | Default logarithmic grid data [bohr] : 0.1000E-03 0.1000E+03 0.1012E+01
  Species O : On-site basis accuracy parameter (for Gram-Schmidt orthonormalisation) not specified.
  Using default value basis_acc =  0.1000000E-03.
  Species O                   : Using default innermost maximum threshold i_radial=  2 for radial functions.
  Species O                   : Default cutoff onset for free atom density etc. : 0.35000000E+01 AA.
  Species O                   : Basic radial grid will be enhanced according to radial_multiplier =   1, to contain    36 grid points.
 
  Finished reading input file 'control.in'. Consistency checks are next.
 
  MPI_IN_PLACE appears to work with this MPI implementation.
  | Keeping use_mpi_in_place .true. (see manual).
  Target number of points in a grid batch is not set. Defaulting to  100
  Method for grid partitioning is not set. Defaulting to parallel hash+maxmin partitioning.
  Batch size limit is not set. Defaulting to    200
  By default, will store active basis functions for each batch.
  If in need of memory, prune_basis_once .false. can be used to disable this option.
  communication_type for Hartree potential was not specified.
  Defaulting to calc_hartree .
  Pulay mixer: Number of initial linear mixing iterations not set.
  Defaulting to    0 iterations.
  Work space size for distributed Hartree potential not set.
  Defaulting to   0.200000E+03 MB.
  Algorithm-dependent basis array size parameters:
  | n_max_pulay                         :       10
  Presetting      1001 iterations before the initial mixing cycle
  is restarted anyway using the sc_init_iter criterion / keyword.
  Presetting a factor      1.000 between actual scf density residual
  and density convergence criterion sc_accuracy_rho below which sc_init_iter
  takes no effect.
  Geometry relaxation not requested: no relaxation will be performed.
  Handling of forces: Unphysical translation and rotation will be removed from forces.
  No accuracy limit for integral partition fn. given. Defaulting to  0.1000E-14.
  No threshold value for u(r) in integrations given. Defaulting to  0.1000E-05.
  No accuracy for occupation numbers given. Defaulting to  0.1000E-12.
  No threshold value for occupation numbers given. Defaulting to  0.0000E+00.
  No accuracy for fermi level given. Defaulting to  0.1000E-19.
  Maximum # of iterations to find E_F not set. Defaulting to  200.
  Preferred method for the eigenvalue solver ('KS_method') not specified in 'control.in'.
  Defaulting to serial version, 'lapack_fast'.
  Will not use alltoall communication since running on < 1024 CPUs.
  Threshold for basis singularities not set.
  Default threshold for basis singularities:  0.1000E-04
  partition_type (choice of integration weights) for integrals was not specified.
  | Using a version of the partition function of Stratmann and coworkers ('stratmann_smoother').
  | At each grid point, the set of atoms used to build the partition table is smoothly restricted to
  | only those atoms whose free-atom density would be non-zero at that grid point.
  Partitioning for Hartree potential was not defined. Using partition_type for integrals.
  | Adjusted default value of keyword multip_moments_threshold to:       0.10000000E-11
  | This value may affect high angular momentum components of the Hartree potential in periodic systems.
  No q(lm)/r^(l+1) cutoff set for long-range Hartree potential.
  | Using default value of  0.100000E-09 .
  | Verify using the multipole_threshold keyword.
  Defaulting to new monopole extrapolation.
  Density update method: automatic selection selected.
------------------------------------------------------------


------------------------------------------------------------
          Reading geometry description geometry.in.
------------------------------------------------------------
  Input structure read successfully.
  The structure contains       13 atoms,  and a total of         48.000 electrons.

  Input geometry:
  | No unit cell requested.
  | Atomic structure:
  |       Atom                x [A]            y [A]            z [A]
  |    1: Species C             0.00000000        0.00000000        0.00000000
  |    2: Species H             1.09300000        0.00000000        0.00000000
  |    3: Species N            -0.47961000        0.00000000       -1.41207000
  |    4: Species H            -1.48574000        0.17183000       -1.41578000
  |    5: Species H             0.00488000        0.73590000       -1.92182000
  |    6: Species C            -0.49584000        1.26211000        0.72868000
  |    7: Species H            -1.58789000        1.28919000        0.74431000
  |    8: Species H            -0.13407000        1.27425000        1.75947000
  |    9: Species H            -0.13407000        2.16087000        0.22380000
  |   10: Species C            -0.39425000       -1.28861000        0.74398000
  |   11: Species O            -0.10189000       -1.56493000        1.88303000
  |   12: Species O            -1.10210000       -2.13717000        0.06896000
  |   13: Species H            -0.91941000       -1.79650000       -0.82297000
  |

  | The smallest distance between any two atoms is         0.97209609 AA.
  |
  | The first atom of this pair is atom number                     12 .
  | The second atom of this pair is atom number                    13 .

  Number of empty states per atom not set in control.in - providing a guess from actual geometry.
  | Total number of empty states used during s.c.f. cycle:       29
  If you use a very high smearing, use empty_states (per atom!) in control.in to increase this value.

  Structure-dependent array size parameters: 
  | Maximum number of distinct radial functions  :       21
  | Maximum number of basis functions            :      119
  | Number of Kohn-Sham states (occupied + empty):       53
------------------------------------------------------------

------------------------------------------------------------
          Preparing all fixed parts of the calculation.
------------------------------------------------------------
  Determining machine precision:
    2.225073858507201E-308
  Setting up grids for atomic and cluster calculations.

  Creating wave function, potential, and density for free atoms.

  Species: H

  List of occupied orbitals and eigenvalues:
    n    l              occ      energy [Ha]    energy [eV]
    1    0           1.0000        -0.237589        -6.4651


  Species: C

  List of occupied orbitals and eigenvalues:
    n    l              occ      energy [Ha]    energy [eV]
    1    0           2.0000       -10.038835      -273.1706
    2    0           2.0000        -0.502696       -13.6791
    2    1           2.0000        -0.191971        -5.2238


  Species: N

  List of occupied orbitals and eigenvalues:
    n    l              occ      energy [Ha]    energy [eV]
    1    0           2.0000       -14.128000      -384.4424
    2    0           2.0000        -0.681077       -18.5330
    2    1           3.0000        -0.259788        -7.0692


  Species: O

  List of occupied orbitals and eigenvalues:
    n    l              occ      energy [Ha]    energy [eV]
    1    0           2.0000       -18.898188      -514.2459
    2    0           2.0000        -0.878505       -23.9053
    2    1           4.0000        -0.331779        -9.0282

  Creating fixed part of basis set: Ionic, confined, hydrogenic.
 
  H                    hydrogenic:
 
  List of hydrogenic basis orbitals: 
    n    l      effective z      eigenvalue [eV]  inner max. [A]     outer max. [A]     outer radius [A]   
    2    0         2.100000       -14.9728           0.193243           1.317208           4.583499
    2    1         3.500000       -41.6669           0.602369           0.602369           3.723403
 
 
  C                    hydrogenic:
 
  List of hydrogenic basis orbitals: 
    n    l      effective z      eigenvalue [eV]  inner max. [A]     outer max. [A]     outer radius [A]   
    2    1         1.700000        -9.7616           1.230570           1.230570           4.607917
    3    2         6.000000       -54.4224           0.792453           0.792453           3.883070
    2    0         4.900000       -81.6679           0.082559           0.562749           3.078220
 
 
  N                    hydrogenic:
 
  List of hydrogenic basis orbitals: 
    n    l      effective z      eigenvalue [eV]  inner max. [A]     outer max. [A]     outer radius [A]   
    2    1         1.800000       -10.9749           1.177451           1.177451           4.573712
    3    2         6.800000       -69.9026           0.704619           0.704619           3.538137
    3    0         5.800000       -50.8545           0.067388           1.191934           4.250239
 
 
  O                    hydrogenic:
 
  List of hydrogenic basis orbitals: 
    n    l      effective z      eigenvalue [eV]  inner max. [A]     outer max. [A]     outer radius [A]   
    2    1         1.800000       -10.9749           1.164242           1.164242           4.578029
    3    2         7.600000       -87.3180           0.624125           0.624125           3.251020
    3    0         6.400000       -61.9207           0.061167           1.081902           4.001998
 

  Adding cutoff potential to free-atom effective potential.
  Creating atomic-like basis functions for current effective potential.

  Species H                   :

  List of atomic basis orbitals and eigenvalues:
    n    l      energy [Ha]    energy [eV]    outer radius [A]
    1    0        -0.237589        -6.4651       4.527807


  Species C                   :

  List of atomic basis orbitals and eigenvalues:
    n    l      energy [Ha]    energy [eV]    outer radius [A]
    1    0       -10.038835      -273.1706       1.934409
    2    0        -0.502696       -13.6791       4.496620
    2    1        -0.191971        -5.2238       4.551928


  Species N                   :

  List of atomic basis orbitals and eigenvalues:
    n    l      energy [Ha]    energy [eV]    outer radius [A]
    1    0       -14.128000      -384.4424       1.637919
    2    0        -0.681077       -18.5330       4.463241
    2    1        -0.259788        -7.0692       4.518138


  Species O                   :

  List of atomic basis orbitals and eigenvalues:
    n    l      energy [Ha]    energy [eV]    outer radius [A]
    1    0       -18.898188      -514.2459       1.415765
    2    0        -0.878505       -23.9053       4.413171
    2    1        -0.331779        -9.0282       4.522403

  Assembling full basis from fixed parts.
  | Species H :   atomic orbital   1 s accepted.
  | Species H :    hydro orbital   2 s accepted.
  | Species H :    hydro orbital   2 p accepted.
  | Species C :   atomic orbital   1 s accepted.
  | Species C :    hydro orbital   2 s accepted.
  | Species C :   atomic orbital   2 s accepted.
  | Species C :   atomic orbital   2 p accepted.
  | Species C :    hydro orbital   2 p accepted.
  | Species C :    hydro orbital   3 d accepted.
  | Species N :   atomic orbital   1 s accepted.
  | Species N :    hydro orbital   3 s accepted.
  | Species N :   atomic orbital   2 s accepted.
  | Species N :   atomic orbital   2 p accepted.
  | Species N :    hydro orbital   2 p accepted.
  | Species N :    hydro orbital   3 d accepted.
  | Species O :   atomic orbital   1 s accepted.
  | Species O :    hydro orbital   3 s accepted.
  | Species O :   atomic orbital   2 s accepted.
  | Species O :   atomic orbital   2 p accepted.
  | Species O :    hydro orbital   2 p accepted.
  | Species O :    hydro orbital   3 d accepted.
 
  Basis size parameters after reduction:
  | Total number of radial functions:       21
  | Total number of basis functions :      119
 
  Per-task memory consumption for arrays in subroutine allocate_ext:
  |           5.250512MB.
  Testing on-site integration grid accuracy.
  |  Species  Function  <phi|h_atom|phi> (log., in eV)  <phi|h_atom|phi> (rad., in eV)
           1        1                 -6.4663192853                 -6.4651273558
           1        2                 13.7111246313                 13.7170609718
           1        3                 25.2673269279                 25.2674696378
           2        4               -273.1705927641               -273.1705631568
           2        5                -10.7109323383                -10.7107120029
           2        6                 17.4381822266                 17.4352413244
           2        7                 -5.2255326521                 -5.2270484734
           2        8                  8.6835629259                  8.6603288385
           2        9                 27.4952418996                 27.4953360207
           3       10               -384.4424306495               -384.4423701208
           3       11                 12.5842251816                 12.5842222903
           3       12                -15.7264628251                -15.7264433455
           3       13                 -7.0696854293                 -7.0701769954
           3       14                  8.8090390882                  8.7901077751
           3       15                 35.9586762123                 35.9588528632
           4       16               -514.2458688638               -514.2457643834
           4       17                 15.1795651126                 15.1795290741
           4       18                -21.5359799773                -21.5360846186
           4       19                 -9.0283069236                 -9.0284644067
           4       20                  8.3027758564                  8.2834874195
           4       21                 45.8339351984                 45.8338762259

  Preparing densities etc. for the partition functions (integrals / Hartree potential).

  Preparations completed.
  max(cpu_time)          :      0.149 s.
  Wall clock time (cpu1) :      0.151 s.
------------------------------------------------------------

------------------------------------------------------------
          Begin self-consistency loop: Initialization.

          Date     :  20200710, Time     :  143220.590
------------------------------------------------------------

  Initializing index lists of integration centers etc. from given atomic structure:
  | Number of centers in hartree potential         :        13
  | Number of centers in hartree multipole         :        13
  | Number of centers in electron density summation:        13
  | Number of centers in basis integrals           :        13
  | Number of centers in integrals                 :        13
  | Number of centers in hamiltonian               :        13
  Partitioning the integration grid into batches with parallel hashing+maxmin method.
  | Number of batches:      960
  | Maximal batch size:     138
  | Minimal batch size:      66
  | Average batch size:      72.548
  | Standard deviation of batch sizes:      17.010

  Integration load balanced across     1 MPI tasks.
  Work distribution over tasks is as follows:
  Task     0 has      69646 integration points.
  Initializing partition tables, free-atom densities, potentials, etc. across the integration grid (initialize_grid_storage).
  | initialize_grid_storage: Actual outermost partition radius vs. multipole_radius_free
  | (-- VB: in principle, multipole_radius_free should be larger, hence this output)
  | Species        1: Confinement radius =              4.999999999999999 AA, multipole_radius_free =              5.054417573612229 AA.
  | Species        1: outer_partition_radius set to              5.054417573612229 AA .
  | Species        2: Confinement radius =              4.999999999999999 AA, multipole_radius_free =              5.019602836301480 AA.
  | Species        2: outer_partition_radius set to              5.019602836301480 AA .
  | Species        3: Confinement radius =              4.999999999999999 AA, multipole_radius_free =              5.043624274424571 AA.
  | Species        3: outer_partition_radius set to              5.043624274424571 AA .
  | Species        4: Confinement radius =              4.999999999999999 AA, multipole_radius_free =              5.048384829883283 AA.
  | Species        4: outer_partition_radius set to              5.048384829883283 AA .
  | Original list of interatomic distances with          13 x         13 entries is created.
  | Net number of integration points:    69646
  | of which are non-zero points    :    59308
  Renormalizing the initial density to the exact electron count on the 3D integration grid.
  | Initial density: Formal number of electrons (from input files) :      48.0000000000
  | Integrated number of electrons on 3D grid     :      47.9998526032
  | Charge integration error                      :      -0.0001473968
  | Normalization factor for density and gradient :       1.0000030708
  Obtaining max. number of non-zero basis functions in each batch (get_n_compute_maxes).
  | Maximal number of non-zero basis functions:      119 in task     0
  Selecting the method for density update.
  Loop over occupied states selected for charge density update.
  Allocating        0.050 MB for KS_eigenvector
  Integrating Hamiltonian matrix: batch-based integration.
  Time summed over all CPUs for integration: real work        0.494 s, elapsed        0.494 s
  Integrating overlap matrix.
  Time summed over all CPUs for integration: real work        0.213 s, elapsed        0.213 s

  Updating Kohn-Sham eigenvalues and eigenvectors using ELSI and the ELPA eigensolver.
  Overlap matrix is nonsingular
  | Lowest eigenvalue of overlap  :  0.46E-02
  | Highest eigenvalue of overlap :  0.64E+01
  Finished singularity check of overlap matrix
  | Time :     0.002 s
  Finished Cholesky decomposition
  | Time :     0.000 s
  Finished transformation to standard eigenproblem
  | Time :     0.000 s
  Starting LAPACK eigensolver
  Finished solving standard eigenproblem
  | Time :     0.002 s
  Finished back-transformation of eigenvectors
  | Time :     0.000 s

  Obtaining occupation numbers and chemical potential using ELSI.
  | Chemical potential (Fermi level):    -9.01565899eV
  Writing Kohn-Sham eigenvalues.

  State    Occupation    Eigenvalue [Ha]    Eigenvalue [eV]
      1       2.00000         -19.007555         -517.22189
      2       2.00000         -18.977122         -516.39377
      3       2.00000         -14.247485         -387.69379
      4       2.00000         -10.166799         -276.65268
      5       2.00000         -10.141967         -275.97697
      6       2.00000         -10.131924         -275.70369
      7       2.00000          -1.181539          -32.15131
      8       2.00000          -1.101361          -29.96956
      9       2.00000          -0.993968          -27.04725
     10       2.00000          -0.858791          -23.36890
     11       2.00000          -0.756322          -20.58056
     12       2.00000          -0.680810          -18.52577
     13       2.00000          -0.643015          -17.49733
     14       2.00000          -0.602045          -16.38247
     15       2.00000          -0.580571          -15.79813
     16       2.00000          -0.557961          -15.18289
     17       2.00000          -0.555655          -15.12015
     18       2.00000          -0.531453          -14.46158
     19       2.00000          -0.521554          -14.19221
     20       2.00000          -0.502376          -13.67034
     21       2.00000          -0.468002          -12.73498
     22       2.00000          -0.428640          -11.66388
     23       2.00000          -0.411175          -11.18864
     24       2.00000          -0.391274          -10.64711
     25       0.00000          -0.149281           -4.06214
     26       0.00000          -0.063728           -1.73414
     27       0.00000          -0.028052           -0.76333
     28       0.00000          -0.008813           -0.23981
     29       0.00000           0.004364            0.11875
     30       0.00000           0.010766            0.29295
     31       0.00000           0.021980            0.59811
     32       0.00000           0.039068            1.06310
     33       0.00000           0.046389            1.26231
     34       0.00000           0.059118            1.60867
     35       0.00000           0.072326            1.96809
     36       0.00000           0.132905            3.61654
     37       0.00000           0.170347            4.63537
     38       0.00000           0.202261            5.50379
     39       0.00000           0.208017            5.66044
     40       0.00000           0.223359            6.07790
     41       0.00000           0.238130            6.47985
     42       0.00000           0.263557            7.17176
     43       0.00000           0.282592            7.68973
     44       0.00000           0.311653            8.48052
     45       0.00000           0.330131            8.98332
     46       0.00000           0.350379            9.53430
     47       0.00000           0.365077            9.93425
     48       0.00000           0.375945           10.22999
     49       0.00000           0.428141           11.65032
     50       0.00000           0.509328           13.85952
     51       0.00000           0.528461           14.38015
     52       0.00000           0.556534           15.14407
     53       0.00000           0.587184           15.97809

  Highest occupied state (VBM) at    -10.64711319 eV
  | Occupation number:      2.00000000

  Lowest unoccupied state (CBM) at    -4.06213854 eV
  | Occupation number:      0.00000000

  Overall HOMO-LUMO gap:      6.58497465 eV.
  Calculating total energy contributions from superposition of free atom densities.

  Total energy components:
  | Sum of eigenvalues            :        -188.87872754 Ha       -5139.65167886 eV
  | XC energy correction          :         -41.80184768 Ha       -1137.48615008 eV
  | XC potential correction       :          53.73822792 Ha        1462.29158229 eV
  | Free-atom electrostatic energy:        -146.82794961 Ha       -3995.39179227 eV
  | Hartree energy correction     :           0.00000000 Ha           0.00000000 eV
  | vdW energy correction         :           0.00000000 Ha           0.00000000 eV
  | Entropy correction            :           0.00000000 Ha           0.00000000 eV
  | ---------------------------
  | Total energy                  :        -323.77029691 Ha       -8810.23803892 eV
  | Total energy, T -> 0          :        -323.77029691 Ha       -8810.23803892 eV  <-- do not rely on this value for anything but (periodic) metals
  | Electronic free energy        :        -323.77029691 Ha       -8810.23803892 eV

  Derived energy quantities:
  | Kinetic energy                :         320.51321480 Ha        8721.60832513 eV
  | Electrostatic energy          :        -602.48166402 Ha      -16394.36021397 eV
  | Energy correction for multipole
  | error in Hartree potential    :           0.00000000 Ha           0.00000000 eV
  | Sum of eigenvalues per atom                           :        -395.35782145 eV
  | Total energy (T->0) per atom                          :        -677.71061838 eV  <-- do not rely on this value for anything but (periodic) metals
  | Electronic free energy per atom                       :        -677.71061838 eV
  Initialize hartree_potential_storage
  Max. number of atoms included in rho_multipole:           13

  End scf initialization - timings             :  max(cpu_time)    wall_clock(cpu1)
  | Time for scf. initialization               :        1.151 s           1.152 s
  | Boundary condition initialization          :        0.000 s           0.000 s
  | Integration                                :        0.707 s           0.708 s
  | Solution of K.-S. eqns.                    :        0.004 s           0.004 s
  | Grid partitioning                          :        0.111 s           0.111 s
  | Preloading free-atom quantities on grid    :        0.002 s           0.002 s
  | Free-atom superposition energy             :        0.084 s           0.085 s
  | Total energy evaluation                    :        0.000 s           0.000 s

  Partial memory accounting:
  | Current value for overall tracked memory usage on task 0  :           0.165 MB
  | Peak value for overall tracked memory usage on task 0     :           0.676 MB after allocating wave
  | Largest tracked array allocation on task 0 so far         :           0.131 MB  when allocating H_times_psi
  Note:  These values currently only include a subset of arrays which are explicitly tracked.
  The "true" memory usage will be greater.
------------------------------------------------------------

------------------------------------------------------------
          Begin self-consistency iteration #    1

  Date     :  20200710, Time     :  143221.742
------------------------------------------------------------
  Evaluating new KS density.
  Integration grid: deviation in total charge (<rho> - N_e) =   2.131628E-14
  Pulay mixing of updated and previous charge densities.

  Evaluating partitioned Hartree potential by multipole expansion.
  | Analytical far-field extrapolation by fixed multipoles:
  | Hartree multipole sum: apparent total charge =  -0.253146E-03
  Summing up the Hartree potential.
  Time summed over all CPUs for potential: real work        0.281 s, elapsed        0.281 s
  | RMS charge density error from multipole expansion :   0.593299E-02

  Integrating Hamiltonian matrix: batch-based integration.
  Time summed over all CPUs for integration: real work        0.494 s, elapsed        0.494 s

  Updating Kohn-Sham eigenvalues and eigenvectors using ELSI and the ELPA eigensolver.
  Finished Cholesky decomposition
  | Time :     0.000 s
  Finished transformation to standard eigenproblem
  | Time :     0.000 s
  Starting LAPACK eigensolver
  Finished solving standard eigenproblem
  | Time :     0.001 s
  Finished back-transformation of eigenvectors
  | Time :     0.000 s

  Obtaining occupation numbers and chemical potential using ELSI.
  | Chemical potential (Fermi level):    -7.99066985eV
  Writing Kohn-Sham eigenvalues.

  State    Occupation    Eigenvalue [Ha]    Eigenvalue [eV]
      1       2.00000         -18.902907         -514.37428
      2       2.00000         -18.828582         -512.35178
      3       2.00000         -14.113367         -384.04426
      4       2.00000         -10.112004         -275.16162
      5       2.00000         -10.068829         -273.98679
      6       2.00000         -10.033976         -273.03839
      7       2.00000          -1.129447          -30.73381
      8       2.00000          -1.033367          -28.11934
      9       2.00000          -0.933068          -25.39007
     10       2.00000          -0.797100          -21.69018
     11       2.00000          -0.705766          -19.20486
     12       2.00000          -0.633299          -17.23295
     13       2.00000          -0.594822          -16.18593
     14       2.00000          -0.544116          -14.80614
     15       2.00000          -0.524198          -14.26416
     16       2.00000          -0.503707          -13.70656
     17       2.00000          -0.487923          -13.27705
     18       2.00000          -0.472051          -12.84516
     19       2.00000          -0.466739          -12.70063
     20       2.00000          -0.445865          -12.13261
     21       2.00000          -0.415369          -11.30277
     22       2.00000          -0.363219           -9.88370
     23       2.00000          -0.342429           -9.31796
     24       2.00000          -0.319644           -8.69794
     25       0.00000          -0.109246           -2.97273
     26       0.00000          -0.040705           -1.10763
     27       0.00000           0.012405            0.33755
     28       0.00000           0.016730            0.45525
     29       0.00000           0.034508            0.93901
     30       0.00000           0.039936            1.08672
     31       0.00000           0.055212            1.50239
     32       0.00000           0.072660            1.97718
     33       0.00000           0.083501            2.27219
     34       0.00000           0.095577            2.60079
     35       0.00000           0.112747            3.06800
     36       0.00000           0.163254            4.44237
     37       0.00000           0.197736            5.38066
     38       0.00000           0.229599            6.24771
     39       0.00000           0.237300            6.45725
     40       0.00000           0.255362            6.94874
     41       0.00000           0.270866            7.37064
     42       0.00000           0.296359            8.06435
     43       0.00000           0.312514            8.50393
     44       0.00000           0.350400            9.53487
     45       0.00000           0.369189           10.04614
     46       0.00000           0.388134           10.56167
     47       0.00000           0.401117           10.91496
     48       0.00000           0.417194           11.35241
     49       0.00000           0.466367           12.69050
     50       0.00000           0.544629           14.82011
     51       0.00000           0.560870           15.26204
     52       0.00000           0.585547           15.93355
     53       0.00000           0.621558           16.91344

  Highest occupied state (VBM) at     -8.69794246 eV
  | Occupation number:      2.00000000

  Lowest unoccupied state (CBM) at    -2.97272592 eV
  | Occupation number:      0.00000000

  Overall HOMO-LUMO gap:      5.72521654 eV.

  Total energy components:
  | Sum of eigenvalues            :        -185.54358705 Ha       -5048.89788879 eV
  | XC energy correction          :         -42.12611921 Ha       -1146.31002732 eV
  | XC potential correction       :          54.15990969 Ha        1473.76612710 eV
  | Free-atom electrostatic energy:        -146.82794961 Ha       -3995.39179227 eV
  | Hartree energy correction     :          -3.25737577 Ha         -88.63770456 eV
  | vdW energy correction         :           0.00000000 Ha           0.00000000 eV
  | Entropy correction            :           0.00000000 Ha           0.00000000 eV
  | ---------------------------
  | Total energy                  :        -323.59512195 Ha       -8805.47128584 eV
  | Total energy, T -> 0          :        -323.59512195 Ha       -8805.47128584 eV  <-- do not rely on this value for anything but (periodic) metals
  | Electronic free energy        :        -323.59512195 Ha       -8805.47128584 eV

  Derived energy quantities:
  | Kinetic energy                :         322.27912270 Ha        8769.66112401 eV
  | Electrostatic energy          :        -603.74812544 Ha      -16428.82238252 eV
  | Energy correction for multipole
  | error in Hartree potential    :           0.01147940 Ha           0.31237024 eV
  | Sum of eigenvalues per atom                           :        -388.37676068 eV
  | Total energy (T->0) per atom                          :        -677.34394506 eV  <-- do not rely on this value for anything but (periodic) metals
  | Electronic free energy per atom                       :        -677.34394506 eV

  Self-consistency convergence accuracy:
  | Change of charge density      :  0.5761E+00
  | Change of sum of eigenvalues  :  0.9075E+02 eV
  | Change of total energy        :  0.4767E+01 eV

  End self-consistency iteration #     1       :  max(cpu_time)    wall_clock(cpu1)
  | Time for this iteration                    :        1.187 s           1.188 s
  | Charge density update                      :        0.394 s           0.394 s
  | Density mixing                             :        0.005 s           0.006 s
  | Hartree multipole update                   :        0.009 s           0.009 s
  | Hartree multipole summation                :        0.282 s           0.282 s
  | Integration                                :        0.494 s           0.494 s
  | Solution of K.-S. eqns.                    :        0.002 s           0.003 s
  | Total energy evaluation                    :        0.000 s           0.000 s

  Partial memory accounting:
  | Current value for overall tracked memory usage on task 0  :           0.165 MB
  | Peak value for overall tracked memory usage on task 0     :           0.691 MB after allocating gradient_basis_wave
  | Largest tracked array allocation on task 0 so far         :           0.394 MB  when allocating gradient_basis_wave
  Note:  These values currently only include a subset of arrays which are explicitly tracked.
  The "true" memory usage will be greater.
------------------------------------------------------------

------------------------------------------------------------
          Begin self-consistency iteration #    2

  Date     :  20200710, Time     :  143222.931
------------------------------------------------------------
  Evaluating new KS density.
  Integration grid: deviation in total charge (<rho> - N_e) =   7.105427E-15
  Pulay mixing of updated and previous charge densities.

  Evaluating partitioned Hartree potential by multipole expansion.
  | Analytical far-field extrapolation by fixed multipoles:
  | Hartree multipole sum: apparent total charge =  -0.389182E-03
  Summing up the Hartree potential.
  Time summed over all CPUs for potential: real work        0.282 s, elapsed        0.282 s
  | RMS charge density error from multipole expansion :   0.141610E-01

  Integrating Hamiltonian matrix: batch-based integration.
  Time summed over all CPUs for integration: real work        0.496 s, elapsed        0.496 s

  Updating Kohn-Sham eigenvalues and eigenvectors using ELSI and the ELPA eigensolver.
  Finished Cholesky decomposition
  | Time :     0.000 s
  Finished transformation to standard eigenproblem
  | Time :     0.000 s
  Starting LAPACK eigensolver
  Finished solving standard eigenproblem
  | Time :     0.001 s
  Finished back-transformation of eigenvectors
  | Time :     0.000 s

  Obtaining occupation numbers and chemical potential using ELSI.
  | Chemical potential (Fermi level):    -2.57522662eV
  Highest occupied state (VBM) at     -6.76437580 eV
  | Occupation number:      2.00000000

  Lowest unoccupied state (CBM) at    -1.59904978 eV
  | Occupation number:      0.00000000

  Overall HOMO-LUMO gap:      5.16532602 eV.

  Checking to see if s.c.f. parameters should be adjusted.

  Total energy components:
  | Sum of eigenvalues            :        -182.00812939 Ha       -4952.69319086 eV
  | XC energy correction          :         -42.48294713 Ha       -1156.01980895 eV
  | XC potential correction       :          54.62236154 Ha        1486.35008204 eV
  | Free-atom electrostatic energy:        -146.82794961 Ha       -3995.39179227 eV
  | Hartree energy correction     :          -6.82234326 Ha        -185.64540552 eV
  | vdW energy correction         :           0.00000000 Ha           0.00000000 eV
  | Entropy correction            :           0.00000000 Ha           0.00000000 eV
  | ---------------------------
  | Total energy                  :        -323.51900785 Ha       -8803.40011557 eV
  | Total energy, T -> 0          :        -323.51900785 Ha       -8803.40011557 eV  <-- do not rely on this value for anything but (periodic) metals
  | Electronic free energy        :        -323.51900785 Ha       -8803.40011557 eV

  Derived energy quantities:
  | Kinetic energy                :         323.59290688 Ha        8805.41101066 eV
  | Electrostatic energy          :        -604.62896760 Ha      -16452.79131729 eV
  | Energy correction for multipole
  | error in Hartree potential    :           0.02527746 Ha           0.68783472 eV
  | Sum of eigenvalues per atom                           :        -380.97639930 eV
  | Total energy (T->0) per atom                          :        -677.18462427 eV  <-- do not rely on this value for anything but (periodic) metals
  | Electronic free energy per atom                       :        -677.18462427 eV

  Self-consistency convergence accuracy:
  | Change of charge density      :  0.3597E+00
  | Change of sum of eigenvalues  :  0.9620E+02 eV
  | Change of total energy        :  0.2071E+01 eV

  End self-consistency iteration #     2       :  max(cpu_time)    wall_clock(cpu1)
  | Time for this iteration                    :        1.182 s           1.183 s
  | Charge density update                      :        0.386 s           0.385 s
  | Density mixing                             :        0.007 s           0.006 s
  | Hartree multipole update                   :        0.009 s           0.009 s
  | Hartree multipole summation                :        0.282 s           0.283 s
  | Integration                                :        0.496 s           0.496 s
  | Solution of K.-S. eqns.                    :        0.002 s           0.002 s
  | Total energy evaluation                    :        0.000 s           0.000 s

  Partial memory accounting:
  | Current value for overall tracked memory usage on task 0  :           0.166 MB
  | Peak value for overall tracked memory usage on task 0     :           0.691 MB after allocating gradient_basis_wave
  | Largest tracked array allocation on task 0 so far         :           0.394 MB  when allocating gradient_basis_wave
  Note:  These values currently only include a subset of arrays which are explicitly tracked.
  The "true" memory usage will be greater.
------------------------------------------------------------

------------------------------------------------------------
          Begin self-consistency iteration #    3

  Date     :  20200710, Time     :  143224.114
------------------------------------------------------------
  Evaluating new KS density.
  Integration grid: deviation in total charge (<rho> - N_e) =  -2.131628E-14
  Pulay mixing of updated and previous charge densities.

  Evaluating partitioned Hartree potential by multipole expansion.
  | Analytical far-field extrapolation by fixed multipoles:
  | Hartree multipole sum: apparent total charge =  -0.487119E-03
  Summing up the Hartree potential.
  Time summed over all CPUs for potential: real work        0.282 s, elapsed        0.282 s
  | RMS charge density error from multipole expansion :   0.224097E-01

  Integrating Hamiltonian matrix: batch-based integration.
  Time summed over all CPUs for integration: real work        0.495 s, elapsed        0.495 s

  Updating Kohn-Sham eigenvalues and eigenvectors using ELSI and the ELPA eigensolver.
  Finished Cholesky decomposition
  | Time :     0.000 s
  Finished transformation to standard eigenproblem
  | Time :     0.000 s
  Starting LAPACK eigensolver
  Finished solving standard eigenproblem
  | Time :     0.002 s
  Finished back-transformation of eigenvectors
  | Time :     0.000 s

  Obtaining occupation numbers and chemical potential using ELSI.
  | Chemical potential (Fermi level):    -6.03576954eV
  Highest occupied state (VBM) at     -6.13357947 eV
  | Occupation number:      2.00000000

  Lowest unoccupied state (CBM) at    -0.86439239 eV
  | Occupation number:      0.00000000

  Overall HOMO-LUMO gap:      5.26918708 eV.

  Total energy components:
  | Sum of eigenvalues            :        -180.67775002 Ha       -4916.49172647 eV
  | XC energy correction          :         -42.63591883 Ha       -1160.18238081 eV
  | XC potential correction       :          54.81739384 Ha        1491.65718095 eV
  | Free-atom electrostatic energy:        -146.82794961 Ha       -3995.39179227 eV
  | Hartree energy correction     :          -8.18281373 Ha        -222.66569077 eV
  | vdW energy correction         :           0.00000000 Ha           0.00000000 eV
  | Entropy correction            :          -0.00000000 Ha          -0.00000000 eV
  | ---------------------------
  | Total energy                  :        -323.50703836 Ha       -8803.07440937 eV
  | Total energy, T -> 0          :        -323.50703836 Ha       -8803.07440937 eV  <-- do not rely on this value for anything but (periodic) metals
  | Electronic free energy        :        -323.50703836 Ha       -8803.07440937 eV

  Derived energy quantities:
  | Kinetic energy                :         323.19851635 Ha        8794.67909829 eV
  | Electrostatic energy          :        -604.06963589 Ha      -16437.57112685 eV
  | Energy correction for multipole
  | error in Hartree potential    :           0.03566103 Ha           0.97038593 eV
  | Sum of eigenvalues per atom                           :        -378.19167127 eV
  | Total energy (T->0) per atom                          :        -677.15956995 eV  <-- do not rely on this value for anything but (periodic) metals
  | Electronic free energy per atom                       :        -677.15956995 eV

  Self-consistency convergence accuracy:
  | Change of charge density      :  0.2001E+00
  | Change of sum of eigenvalues  :  0.3620E+02 eV
  | Change of total energy        :  0.3257E+00 eV

  End self-consistency iteration #     3       :  max(cpu_time)    wall_clock(cpu1)
  | Time for this iteration                    :        1.182 s           1.183 s
  | Charge density update                      :        0.386 s           0.386 s
  | Density mixing                             :        0.008 s           0.008 s
  | Hartree multipole update                   :        0.009 s           0.009 s
  | Hartree multipole summation                :        0.282 s           0.282 s
  | Integration                                :        0.495 s           0.496 s
  | Solution of K.-S. eqns.                    :        0.002 s           0.002 s
  | Total energy evaluation                    :        0.000 s           0.000 s

  Partial memory accounting:
  | Current value for overall tracked memory usage on task 0  :           0.166 MB
  | Peak value for overall tracked memory usage on task 0     :           0.692 MB after allocating gradient_basis_wave
  | Largest tracked array allocation on task 0 so far         :           0.394 MB  when allocating gradient_basis_wave
  Note:  These values currently only include a subset of arrays which are explicitly tracked.
  The "true" memory usage will be greater.
------------------------------------------------------------

------------------------------------------------------------
          Begin self-consistency iteration #    4

  Date     :  20200710, Time     :  143225.298
------------------------------------------------------------
  Evaluating new KS density.
  Integration grid: deviation in total charge (<rho> - N_e) =   3.552714E-14
  Pulay mixing of updated and previous charge densities.

  Evaluating partitioned Hartree potential by multipole expansion.
  | Analytical far-field extrapolation by fixed multipoles:
  | Hartree multipole sum: apparent total charge =  -0.519125E-03
  Summing up the Hartree potential.
  Time summed over all CPUs for potential: real work        0.282 s, elapsed        0.282 s
  | RMS charge density error from multipole expansion :   0.259409E-01

  Integrating Hamiltonian matrix: batch-based integration.
  Time summed over all CPUs for integration: real work        0.496 s, elapsed        0.496 s

  Updating Kohn-Sham eigenvalues and eigenvectors using ELSI and the ELPA eigensolver.
  Finished Cholesky decomposition
  | Time :     0.000 s
  Finished transformation to standard eigenproblem
  | Time :     0.000 s
  Starting LAPACK eigensolver
  Finished solving standard eigenproblem
  | Time :     0.002 s
  Finished back-transformation of eigenvectors
  | Time :     0.000 s

  Obtaining occupation numbers and chemical potential using ELSI.
  | Chemical potential (Fermi level):    -1.80989360eV
  Highest occupied state (VBM) at     -5.84676463 eV
  | Occupation number:      2.00000000

  Lowest unoccupied state (CBM) at    -0.79179292 eV
  | Occupation number:      0.00000000

  Overall HOMO-LUMO gap:      5.05497171 eV.

  Total energy components:
  | Sum of eigenvalues            :        -180.59283206 Ha       -4914.18099126 eV
  | XC energy correction          :         -42.66987150 Ha       -1161.10627998 eV
  | XC potential correction       :          54.85982816 Ha        1492.81187777 eV
  | Free-atom electrostatic energy:        -146.82794961 Ha       -3995.39179227 eV
  | Hartree energy correction     :          -8.27525609 Ha        -225.18117524 eV
  | vdW energy correction         :           0.00000000 Ha           0.00000000 eV
  | Entropy correction            :           0.00000000 Ha           0.00000000 eV
  | ---------------------------
  | Total energy                  :        -323.50608110 Ha       -8803.04836098 eV
  | Total energy, T -> 0          :        -323.50608110 Ha       -8803.04836098 eV  <-- do not rely on this value for anything but (periodic) metals
  | Electronic free energy        :        -323.50608110 Ha       -8803.04836098 eV

  Derived energy quantities:
  | Kinetic energy                :         322.78439068 Ha        8783.41016549 eV
  | Electrostatic energy          :        -603.62060029 Ha      -16425.35224649 eV
  | Energy correction for multipole
  | error in Hartree potential    :           0.03952608 Ha           1.07555923 eV
  | Sum of eigenvalues per atom                           :        -378.01392240 eV
  | Total energy (T->0) per atom                          :        -677.15756623 eV  <-- do not rely on this value for anything but (periodic) metals
  | Electronic free energy per atom                       :        -677.15756623 eV

  Self-consistency convergence accuracy:
  | Change of charge density      :  0.6517E-01
  | Change of sum of eigenvalues  :  0.2311E+01 eV
  | Change of total energy        :  0.2605E-01 eV

  End self-consistency iteration #     4       :  max(cpu_time)    wall_clock(cpu1)
  | Time for this iteration                    :        1.185 s           1.187 s
  | Charge density update                      :        0.386 s           0.386 s
  | Density mixing                             :        0.010 s           0.010 s
  | Hartree multipole update                   :        0.009 s           0.009 s
  | Hartree multipole summation                :        0.282 s           0.283 s
  | Integration                                :        0.496 s           0.496 s
  | Solution of K.-S. eqns.                    :        0.002 s           0.003 s
  | Total energy evaluation                    :        0.000 s           0.000 s

  Partial memory accounting:
  | Current value for overall tracked memory usage on task 0  :           0.166 MB
  | Peak value for overall tracked memory usage on task 0     :           0.692 MB after allocating gradient_basis_wave
  | Largest tracked array allocation on task 0 so far         :           0.394 MB  when allocating gradient_basis_wave
  Note:  These values currently only include a subset of arrays which are explicitly tracked.
  The "true" memory usage will be greater.
------------------------------------------------------------

------------------------------------------------------------
          Begin self-consistency iteration #    5

  Date     :  20200710, Time     :  143226.485
------------------------------------------------------------
  Evaluating new KS density.
  Integration grid: deviation in total charge (<rho> - N_e) =  -5.684342E-14
  Pulay mixing of updated and previous charge densities.

  Evaluating partitioned Hartree potential by multipole expansion.
  | Analytical far-field extrapolation by fixed multipoles:
  | Hartree multipole sum: apparent total charge =  -0.514264E-03
  Summing up the Hartree potential.
  Time summed over all CPUs for potential: real work        0.282 s, elapsed        0.282 s
  | RMS charge density error from multipole expansion :   0.256712E-01

  Integrating Hamiltonian matrix: batch-based integration.
  Time summed over all CPUs for integration: real work        0.496 s, elapsed        0.496 s

  Updating Kohn-Sham eigenvalues and eigenvectors using ELSI and the ELPA eigensolver.
  Finished Cholesky decomposition
  | Time :     0.000 s
  Finished transformation to standard eigenproblem
  | Time :     0.000 s
  Starting LAPACK eigensolver
  Finished solving standard eigenproblem
  | Time :     0.001 s
  Finished back-transformation of eigenvectors
  | Time :     0.000 s

  Obtaining occupation numbers and chemical potential using ELSI.
  | Chemical potential (Fermi level):    -1.85055246eV
  Highest occupied state (VBM) at     -5.97155079 eV
  | Occupation number:      2.00000000

  Lowest unoccupied state (CBM) at    -0.85378090 eV
  | Occupation number:      0.00000000

  Overall HOMO-LUMO gap:      5.11776989 eV.

  Total energy components:
  | Sum of eigenvalues            :        -180.72553675 Ha       -4917.79206957 eV
  | XC energy correction          :         -42.65226232 Ha       -1160.62710967 eV
  | XC potential correction       :          54.83702053 Ha        1492.19125060 eV
  | Free-atom electrostatic energy:        -146.82794961 Ha       -3995.39179227 eV
  | Hartree energy correction     :          -8.13705083 Ha        -221.42041876 eV
  | vdW energy correction         :           0.00000000 Ha           0.00000000 eV
  | Entropy correction            :           0.00000000 Ha           0.00000000 eV
  | ---------------------------
  | Total energy                  :        -323.50577898 Ha       -8803.04013968 eV
  | Total energy, T -> 0          :        -323.50577898 Ha       -8803.04013968 eV  <-- do not rely on this value for anything but (periodic) metals
  | Electronic free energy        :        -323.50577898 Ha       -8803.04013968 eV

  Derived energy quantities:
  | Kinetic energy                :         322.71699487 Ha        8781.57623205 eV
  | Electrostatic energy          :        -603.57051153 Ha      -16423.98926205 eV
  | Energy correction for multipole
  | error in Hartree potential    :           0.03896692 Ha           1.06034378 eV
  | Sum of eigenvalues per atom                           :        -378.29169766 eV
  | Total energy (T->0) per atom                          :        -677.15693382 eV  <-- do not rely on this value for anything but (periodic) metals
  | Electronic free energy per atom                       :        -677.15693382 eV

  Self-consistency convergence accuracy:
  | Change of charge density      :  0.2251E-01
  | Change of sum of eigenvalues  : -0.3611E+01 eV
  | Change of total energy        :  0.8221E-02 eV

  End self-consistency iteration #     5       :  max(cpu_time)    wall_clock(cpu1)
  | Time for this iteration                    :        1.187 s           1.195 s
  | Charge density update                      :        0.386 s           0.393 s
  | Density mixing                             :        0.011 s           0.011 s
  | Hartree multipole update                   :        0.009 s           0.009 s
  | Hartree multipole summation                :        0.282 s           0.283 s
  | Integration                                :        0.496 s           0.496 s
  | Solution of K.-S. eqns.                    :        0.002 s           0.002 s
  | Total energy evaluation                    :        0.000 s           0.001 s

  Partial memory accounting:
  | Current value for overall tracked memory usage on task 0  :           0.166 MB
  | Peak value for overall tracked memory usage on task 0     :           0.692 MB after allocating gradient_basis_wave
  | Largest tracked array allocation on task 0 so far         :           0.394 MB  when allocating gradient_basis_wave
  Note:  These values currently only include a subset of arrays which are explicitly tracked.
  The "true" memory usage will be greater.
------------------------------------------------------------

------------------------------------------------------------
          Begin self-consistency iteration #    6

  Date     :  20200710, Time     :  143227.680
------------------------------------------------------------
  Evaluating new KS density.
  Integration grid: deviation in total charge (<rho> - N_e) =   7.105427E-15
  Pulay mixing of updated and previous charge densities.

  Evaluating partitioned Hartree potential by multipole expansion.
  | Analytical far-field extrapolation by fixed multipoles:
  | Hartree multipole sum: apparent total charge =  -0.515451E-03
  Summing up the Hartree potential.
  Time summed over all CPUs for potential: real work        0.282 s, elapsed        0.282 s
  | RMS charge density error from multipole expansion :   0.259424E-01

  Integrating Hamiltonian matrix: batch-based integration.
  Time summed over all CPUs for integration: real work        0.495 s, elapsed        0.495 s

  Updating Kohn-Sham eigenvalues and eigenvectors using ELSI and the ELPA eigensolver.
  Finished Cholesky decomposition
  | Time :     0.000 s
  Finished transformation to standard eigenproblem
  | Time :     0.000 s
  Starting LAPACK eigensolver
  Finished solving standard eigenproblem
  | Time :     0.002 s
  Finished back-transformation of eigenvectors
  | Time :     0.000 s

  Obtaining occupation numbers and chemical potential using ELSI.
  | Chemical potential (Fermi level):    -1.86699981eV
  Highest occupied state (VBM) at     -6.00459346 eV
  | Occupation number:      2.00000000

  Lowest unoccupied state (CBM) at    -0.89343082 eV
  | Occupation number:      0.00000000

  Overall HOMO-LUMO gap:      5.11116264 eV.

  Total energy components:
  | Sum of eigenvalues            :        -180.78616307 Ha       -4919.44179548 eV
  | XC energy correction          :         -42.64421773 Ha       -1160.40820524 eV
  | XC potential correction       :          54.82657053 Ha        1491.90689144 eV
  | Free-atom electrostatic energy:        -146.82794961 Ha       -3995.39179227 eV
  | Hartree energy correction     :          -8.07394033 Ha        -219.70309469 eV
  | vdW energy correction         :           0.00000000 Ha           0.00000000 eV
  | Entropy correction            :           0.00000000 Ha           0.00000000 eV
  | ---------------------------
  | Total energy                  :        -323.50570021 Ha       -8803.03799623 eV
  | Total energy, T -> 0          :        -323.50570021 Ha       -8803.03799623 eV  <-- do not rely on this value for anything but (periodic) metals
  | Electronic free energy        :        -323.50570021 Ha       -8803.03799623 eV

  Derived energy quantities:
  | Kinetic energy                :         322.62008441 Ha        8778.93916426 eV
  | Electrostatic energy          :        -603.48156689 Ha      -16421.56895525 eV
  | Energy correction for multipole
  | error in Hartree potential    :           0.03899285 Ha           1.06104949 eV
  | Sum of eigenvalues per atom                           :        -378.41859965 eV
  | Total energy (T->0) per atom                          :        -677.15676894 eV  <-- do not rely on this value for anything but (periodic) metals
  | Electronic free energy per atom                       :        -677.15676894 eV

  Self-consistency convergence accuracy:
  | Change of charge density      :  0.1094E-01
  | Change of sum of eigenvalues  : -0.1650E+01 eV
  | Change of total energy        :  0.2143E-02 eV

  End self-consistency iteration #     6       :  max(cpu_time)    wall_clock(cpu1)
  | Time for this iteration                    :        1.188 s           1.189 s
  | Charge density update                      :        0.386 s           0.387 s
  | Density mixing                             :        0.012 s           0.012 s
  | Hartree multipole update                   :        0.009 s           0.009 s
  | Hartree multipole summation                :        0.283 s           0.283 s
  | Integration                                :        0.495 s           0.495 s
  | Solution of K.-S. eqns.                    :        0.002 s           0.002 s
  | Total energy evaluation                    :        0.000 s           0.000 s

  Partial memory accounting:
  | Current value for overall tracked memory usage on task 0  :           0.166 MB
  | Peak value for overall tracked memory usage on task 0     :           0.692 MB after allocating gradient_basis_wave
  | Largest tracked array allocation on task 0 so far         :           0.394 MB  when allocating gradient_basis_wave
  Note:  These values currently only include a subset of arrays which are explicitly tracked.
  The "true" memory usage will be greater.
------------------------------------------------------------

------------------------------------------------------------
          Begin self-consistency iteration #    7

  Date     :  20200710, Time     :  143228.869
------------------------------------------------------------
  Evaluating new KS density.
  Integration grid: deviation in total charge (<rho> - N_e) =  -4.263256E-14
  Pulay mixing of updated and previous charge densities.

  Evaluating partitioned Hartree potential by multipole expansion.
  | Analytical far-field extrapolation by fixed multipoles:
  | Hartree multipole sum: apparent total charge =  -0.516902E-03
  Summing up the Hartree potential.
  Time summed over all CPUs for potential: real work        0.281 s, elapsed        0.281 s
  | RMS charge density error from multipole expansion :   0.260963E-01

  Integrating Hamiltonian matrix: batch-based integration.
  Time summed over all CPUs for integration: real work        0.494 s, elapsed        0.494 s

  Updating Kohn-Sham eigenvalues and eigenvectors using ELSI and the ELPA eigensolver.
  Finished Cholesky decomposition
  | Time :     0.000 s
  Finished transformation to standard eigenproblem
  | Time :     0.000 s
  Starting LAPACK eigensolver
  Finished solving standard eigenproblem
  | Time :     0.001 s
  Finished back-transformation of eigenvectors
  | Time :     0.000 s

[...]
  |   Hirshfeld dipole moment :      0.06288533
  |   Hirshfeld second moments:      0.00201714      -0.02452124      -0.01417764
  |                                 -0.02452124      -0.02820282       0.00477330
  |                                 -0.01417764       0.00477330      -0.02396569
  ----------------------------------------------------------------------
  | Atom    12: O
  |   Hirshfeld charge        :     -0.15011752
  |   Free atom volume        :     23.61338643
  |   Hirshfeld volume        :     21.18825205
  |   Hirshfeld dipole vector :      0.02174285       0.03552179      -0.01258389
  |   Hirshfeld dipole moment :      0.04350751
  |   Hirshfeld second moments:      0.04760860      -0.01147675       0.00353388
  |                                 -0.01147675       0.02816454       0.01577513
  |                                  0.00353388       0.01577513       0.07898074
  ----------------------------------------------------------------------
  | Atom    13: H
  |   Hirshfeld charge        :      0.12666320
  |   Free atom volume        :      9.95071624
  |   Hirshfeld volume        :      7.20432736
  |   Hirshfeld dipole vector :     -0.00010378      -0.00977339      -0.06934788
  |   Hirshfeld dipole moment :      0.07003326
  |   Hirshfeld second moments:      0.10242160      -0.01542297       0.01612551
  |                                 -0.01542297       0.07241276       0.03162481
  |                                  0.01612551       0.03162481       0.07051992
  ----------------------------------------------------------------------


  Total energy components:
  | Sum of eigenvalues            :        -180.77473172 Ha       -4919.13073263 eV
  | XC energy correction          :         -42.64250307 Ha       -1160.36154710 eV
  | XC potential correction       :          54.82442256 Ha        1491.84844215 eV
  | Free-atom electrostatic energy:        -146.82794961 Ha       -3995.39179227 eV
  | Hartree energy correction     :          -8.08491922 Ha        -220.00184556 eV
  | vdW energy correction         :          -0.00335819 Ha          -0.09138106 eV
  | Entropy correction            :           0.00000000 Ha           0.00000000 eV
  | ---------------------------
  | Total energy                  :        -323.50903926 Ha       -8803.12885647 eV
  | Total energy, T -> 0          :        -323.50903926 Ha       -8803.12885647 eV  <-- do not rely on this value for anything but (periodic) metals
  | Electronic free energy        :        -323.50903926 Ha       -8803.12885647 eV

  Derived energy quantities:
  | Kinetic energy                :         322.58354427 Ha        8777.94485649 eV
  | Electrostatic energy          :        -603.44672226 Ha      -16420.62078481 eV
  | Energy correction for multipole
  | error in Hartree potential    :           0.03905298 Ha           1.06268575 eV
  | Sum of eigenvalues per atom                           :        -378.39467174 eV
  | Total energy (T->0) per atom                          :        -677.16375819 eV  <-- do not rely on this value for anything but (periodic) metals
  | Electronic free energy per atom                       :        -677.16375819 eV

  atomic forces [eV/Ang]:
  -----------------------
  atom #    1
   Hellmann-Feynman              :  0.546913E+00  0.561313E+00  0.166892E+01
   Ionic forces                  :  0.000000E+00  0.000000E+00  0.000000E+00
   Multipole                     : -0.595674E-01  0.339025E+00 -0.279092E+00
   Pulay + GGA                   : -0.896742E+00 -0.867621E-01 -0.155824E+01
   Van der Waals                 :  0.214454E-02  0.826070E-03 -0.112808E-02
   ----------------------------------------------------------------
   Total forces(   1)            : -0.407251E+00  0.814401E+00 -0.169545E+00
  atom #    2
   Hellmann-Feynman              :  0.238999E+00  0.893813E-02 -0.198404E+00
   Ionic forces                  :  0.000000E+00  0.000000E+00  0.000000E+00
   Multipole                     :  0.177650E+00  0.239885E-01 -0.152025E-02
   Pulay + GGA                   : -0.147670E+00 -0.934491E-02  0.481172E-01
   Van der Waals                 :  0.489826E-02 -0.459899E-02 -0.576697E-02
   ----------------------------------------------------------------
   Total forces(   2)            :  0.273878E+00  0.189827E-01 -0.157574E+00
  atom #    3
   Hellmann-Feynman              :  0.172895E+01 -0.107119E+02 -0.258210E+01
   Ionic forces                  :  0.000000E+00  0.000000E+00  0.000000E+00
   Multipole                     : -0.909596E-01  0.310084E-01 -0.838889E+00
   Pulay + GGA                   : -0.129828E+01  0.963415E+01  0.407854E+01
   Van der Waals                 :  0.356605E-02 -0.519504E-02 -0.881594E-02
   ----------------------------------------------------------------
   Total forces(   3)            :  0.343279E+00 -0.105194E+01  0.648732E+00
  atom #    4
   Hellmann-Feynman              : -0.154981E+00  0.451523E+00 -0.816724E-01
   Ionic forces                  :  0.000000E+00  0.000000E+00  0.000000E+00
   Multipole                     : -0.947937E-01  0.261238E-01 -0.455650E-01
   Pulay + GGA                   :  0.209712E+00 -0.853315E-01 -0.214412E-01
   Van der Waals                 : -0.160261E-02  0.705124E-02 -0.129496E-01
   ----------------------------------------------------------------
   Total forces(   4)            : -0.416644E-01  0.399367E+00 -0.161628E+00
  atom #    5
   Hellmann-Feynman              : -0.677851E-01  0.208599E+00 -0.209152E+00
   Ionic forces                  :  0.000000E+00  0.000000E+00  0.000000E+00
   Multipole                     :  0.468064E-02  0.435612E-01 -0.832393E-01
   Pulay + GGA                   : -0.696248E-01 -0.226804E+00  0.741751E-01
   Van der Waals                 : -0.314579E-02 -0.805325E-02 -0.546337E-02
   ----------------------------------------------------------------
   Total forces(   5)            : -0.135875E+00  0.173026E-01 -0.223679E+00
  atom #    6
   Hellmann-Feynman              :  0.334607E+00 -0.740106E+00  0.576034E+00
   Ionic forces                  :  0.000000E+00  0.000000E+00  0.000000E+00
   Multipole                     : -0.129598E+00  0.624873E+00  0.201318E+00
   Pulay + GGA                   :  0.897493E-01 -0.305146E+00 -0.433459E+00
   Van der Waals                 : -0.290578E-02  0.739727E-02  0.679453E-02
   ----------------------------------------------------------------
   Total forces(   6)            :  0.291852E+00 -0.412982E+00  0.350687E+00
  atom #    7
   Hellmann-Feynman              : -0.236488E+00 -0.647020E-01 -0.526332E-01
   Ionic forces                  :  0.000000E+00  0.000000E+00  0.000000E+00
   Multipole                     : -0.122850E+00  0.482527E-01  0.352578E-01
   Pulay + GGA                   :  0.114968E+00  0.178779E-01  0.419556E-01
   Van der Waals                 : -0.118655E-02  0.399585E-02  0.709454E-02
   ----------------------------------------------------------------
   Total forces(   7)            : -0.245557E+00  0.542439E-02  0.316747E-01
  atom #    8
   Hellmann-Feynman              :  0.383414E-01  0.302720E-01  0.207045E+00
   Ionic forces                  :  0.000000E+00  0.000000E+00  0.000000E+00
   Multipole                     :  0.165879E-01  0.640820E-01  0.128824E+00
   Pulay + GGA                   : -0.510104E-01 -0.507879E-01 -0.108608E+00
   Van der Waals                 : -0.298561E-02  0.112929E-01  0.568511E-03
   ----------------------------------------------------------------
   Total forces(   8)            :  0.933255E-03  0.548590E-01  0.227830E+00
  atom #    9
   Hellmann-Feynman              :  0.111032E+00  0.578969E-01 -0.185886E+00
   Ionic forces                  :  0.000000E+00  0.000000E+00  0.000000E+00
   Multipole                     :  0.192302E-01  0.128595E+00 -0.701131E-02
   Pulay + GGA                   : -0.428916E-01 -0.657463E-01  0.687243E-01
   Van der Waals                 : -0.350787E-02  0.542934E-02  0.731178E-02
   ----------------------------------------------------------------
   Total forces(   9)            :  0.838626E-01  0.126175E+00 -0.116861E+00
  atom #   10
   Hellmann-Feynman              :  0.239973E+01  0.332996E+01  0.165764E+01
   Ionic forces                  :  0.000000E+00  0.000000E+00  0.000000E+00
   Multipole                     : -0.290412E-01 -0.102224E+00  0.242486E+00
   Pulay + GGA                   : -0.149654E+01 -0.243251E+01 -0.126015E+00
   Van der Waals                 :  0.596704E-02 -0.135590E-01  0.127212E-02
   ----------------------------------------------------------------
   Total forces(  10)            :  0.880120E+00  0.781669E+00  0.177539E+01
  atom #   11
   Hellmann-Feynman              :  0.411187E+01 -0.231870E+01  0.142381E+02
   Ionic forces                  :  0.000000E+00  0.000000E+00  0.000000E+00
   Multipole                     :  0.257182E+00 -0.649727E+00  0.876751E+00
   Pulay + GGA                   : -0.373829E+01  0.378144E+01 -0.139619E+02
   Van der Waals                 : -0.190488E-02 -0.116916E-01  0.797706E-02
   ----------------------------------------------------------------
   Total forces(  11)            :  0.628858E+00  0.801326E+00  0.116100E+01
  atom #   12
   Hellmann-Feynman              : -0.806811E+01 -0.115208E+02  0.183157E+01
   Ionic forces                  :  0.000000E+00  0.000000E+00  0.000000E+00
   Multipole                     : -0.769852E+00 -0.150097E+01 -0.169319E-01
   Pulay + GGA                   :  0.773716E+01  0.116718E+02 -0.359659E+01
   Van der Waals                 :  0.168426E-02  0.188355E-02  0.672392E-02
   ----------------------------------------------------------------
   Total forces(  12)            : -0.109912E+01 -0.134811E+01 -0.177522E+01
  atom #   13
   Hellmann-Feynman              : -0.566379E+00 -0.157462E+00 -0.186913E+01
   Ionic forces                  :  0.000000E+00  0.000000E+00  0.000000E+00
   Multipole                     :  0.323527E-01  0.622981E-01 -0.944320E-01
   Pulay + GGA                   : -0.385904E-01 -0.114377E+00  0.368976E+00
   Van der Waals                 : -0.102106E-02  0.522168E-02 -0.361853E-02
   ----------------------------------------------------------------
   Total forces(  13)            : -0.573637E+00 -0.204320E+00 -0.159820E+01

  Timings for VdW correction (Tkatchenko-Scheffler 2009 or later):
  | CPU time:        0.091 s, Wall clock time:        0.092 s.
  Removing unitary transformations (pure translations, rotations) from forces on atoms.
  Atomic forces before filtering:
  | Net force on center of mass :  -0.324428E-03  0.215325E-02 -0.740445E-02 eV/A
  | Net torque on center of mass:   0.920955E-02 -0.469107E-04  0.286838E-03 eV
  Atomic forces after filtering:
  | Net force on center of mass :   0.178406E-15  0.892031E-16  0.000000E+00 eV/A
  | Net torque on center of mass:  -0.542849E-15  0.188817E-15  0.113290E-14 eV

  Energy and forces in a compact form:
  | Total energy uncorrected      :         -0.880312885647403E+04 eV
  | Total energy corrected        :         -0.880312885647403E+04 eV  <-- do not rely on this value for anything but (periodic) metals
  | Electronic free energy        :         -0.880312885647403E+04 eV
  Total atomic forces (unitary forces cleaned) [eV/Ang]:
  |   1         -0.407226030804585E+00          0.814214869740062E+00         -0.168967546049447E+00
  |   2          0.273902946475236E+00          0.187721250967507E-01         -0.156983545940867E+00
  |   3          0.343321674148360E+00         -0.105245250469807E+01          0.649303020871847E+00
  |   4         -0.416177885071274E-01          0.398875347702533E+00         -0.161110672235331E+00
  |   5         -0.135809517808558E+00          0.166565727093576E-01         -0.223278030300348E+00
  |   6          0.291897010256786E+00         -0.412982420222632E+00          0.350956227710182E+00
  |   7         -0.245512099946203E+00          0.545177551100751E-02          0.319237371927293E-01
  |   8          0.965387595169480E-03          0.550967144576011E-01          0.228100173848274E+00
  |   9          0.839334332078365E-01          0.126045829260887E+00         -0.116802993342488E+00
  |  10          0.880107748557227E+00          0.781670063030902E+00          0.177626630435086E+01
  |  11          0.628824814173162E+00          0.801592716775471E+00          0.116194907173066E+01
  |  12         -0.109914554873386E+01         -0.134825842345224E+01         -0.177414726698780E+01
  |  13         -0.573642028613447E+00         -0.204682665911637E+00         -0.159720848084827E+01

  ------------------------------------ 
  Start decomposition of the XC Energy 
  ------------------------------------ 
  X and C from original XC functional choice 
  Hartree-Fock Energy :          0.000000000 Ha              0.000000000 eV
  X Energy            :        -41.039967453 Ha          -1116.754334230 eV
  C Energy            :         -1.602535618 Ha            -43.607212868 eV
  Total XC Energy     :        -42.642503071 Ha          -1160.361547099 eV
  ------------------------------------ 
  LDA X and C from self-consistent density 
  X Energy LDA        :        -37.261635894 Ha          -1013.940701407 eV
  C Energy LDA        :         -3.139117671 Ha            -85.419737938 eV
  ------------------------------------ 
  End decomposition of the XC Energy 
  ------------------------------------ 

------------------------------------------------------------

------------------------------------------------------------------------------
  Final output of selected total energy values:

  The following output summarizes some interesting total energy values
  at the end of a run (AFTER all relaxation, molecular dynamics, etc.).

  | Total energy of the DFT / Hartree-Fock s.c.f. calculation      :          -8803.128856474 eV
  | Final zero-broadening corrected energy (caution - metals only) :          -8803.128856474 eV
  | For reference only, the value of 1 Hartree used in FHI-aims is :             27.211384500 eV

  Before relying on these values, please be sure to understand exactly which
  total energy value is referred to by a given number. Different objects may
  all carry the same name 'total energy'. Definitions:

  Total energy of the DFT / Hartree-Fock s.c.f. calculation:
  | Note that this energy does not include ANY quantities calculated after the
  | s.c.f. cycle, in particular not ANY RPA, MP2, etc. many-body perturbation terms.

  Final zero-broadening corrected energy:
  | For metallic systems only, a broadening of the occupation numbers at the Fermi
  | level can be extrapolated back to zero broadening by an electron-gas inspired
  | formula. For all systems that are not real metals, this value can be
  | meaningless and should be avoided.

------------------------------------------------------------------------------
  Methods described in the following list of references were used in this FHI-aims run.
  If you publish the results, please make sure to cite these reference if they apply.
  FHI-aims is an academic code, and for our developers (often, Ph.D. students
  and postdocs), scientific credit in the community is essential.
  Thank you for helping us!

  For any use of FHI-aims, please cite:

    Volker Blum, Ralf Gehrke, Felix Hanke, Paula Havu, Ville Havu,
    Xinguo Ren, Karsten Reuter, and Matthias Scheffler
    'Ab initio molecular simulations with numeric atom-centered orbitals'
    Computer Physics Communications 180, 2175-2196 (2009)
    http://dx.doi.org/10.1016/j.cpc.2009.06.022


  The scalable eigensolver library ELPA was used in your run.
  ELPA is essential especially for large systems on hundreds or thousands of CPUs.
  For ELPA, please cite:

    Andreas Marek, Volker Blum, Rainer Johanni, Ville Havu, Bruno Lang,
    Thomas Auckenthaler, Alexander Heinecke, Hans-Joachim Bungartz, and Hermann Lederer,
    'The ELPA Library - Scalable Parallel Eigenvalue Solutions
    for Electronic Structure Theory and Computational Science'
    The Journal of Physics: Condensed Matter 26, 213201 (2014).
    http://dx.doi.org/10.1088/0953-8984/26/21/213201


  The ELSI infrastructure was used in your run to solve the Kohn-Sham electronic structure.
  Please check out http://elsi-interchange.org to learn more.
  If scalability is important for your project, please acknowledge ELSI by citing:

    V. W-z. Yu, F. Corsetti, A. Garcia, W. P. Huhn, M. Jacquelin, W. Jia,
    B. Lange, L. Lin, J. Lu, W. Mi, A. Seifitokaldani, A. Vazquez-Mayagoitia,
    C. Yang, H. Yang, and V. Blum
    'ELSI: A unified software interface for Kohn-Sham electronic structure solvers'
    Computer Physics Communications 222, 267-285 (2018).
    http://dx.doi.org/10.1016/j.cpc.2017.09.007


  For the real-space grid partitioning and parallelization used in this calculation, please cite:

    Ville Havu, Volker Blum, Paula Havu, and Matthias Scheffler,
    'Efficient O(N) integration for all-electron electronic structure calculation'
    'using numerically tabulated basis functions'
    Journal of Computational Physics 228, 8367-8379 (2009).
    http://dx.doi.org/10.1016/j.jcp.2009.08.008

  Of course, there are many other important community references, e.g., those cited in the
  above references. Our list is limited to references that describe implementations in the
  FHI-aims code. The reason is purely practical (length of this list) - please credit others as well.

------------------------------------------------------------
          Leaving FHI-aims.
          Date     :  20200710, Time     :  143243.150

          Computational steps:
          | Number of self-consistency cycles          :           16
          | Number of SCF (re)initializations          :            1

          Detailed time accounting                     :  max(cpu_time)    wall_clock(cpu1)
          | Total time                                 :       22.682 s          22.725 s
          | Preparation time                           :        0.149 s           0.151 s
          | Boundary condition initalization           :        0.000 s           0.000 s
          | Grid partitioning                          :        0.111 s           0.111 s
          | Preloading free-atom quantities on grid    :        0.002 s           0.002 s
          | Free-atom superposition energy             :        0.084 s           0.085 s
          | Total time for integrations                :        8.632 s           8.643 s
          | Total time for solution of K.-S. equations :        0.036 s           0.039 s
          | Total time for density & force components  :        7.141 s           7.154 s
          | Total time for mixing                      :        0.216 s           0.217 s
          | Total time for Hartree multipole update    :        0.140 s           0.143 s
          | Total time for Hartree multipole sum       :        5.768 s           5.770 s
          | Total time for total energy evaluation     :        0.003 s           0.004 s
          | Total time for vdW correction              :        0.091 s           0.092 s

          Partial memory accounting:
          | Residual value for overall tracked memory usage across tasks :           0.000 MB (should be 0.000 MB)
          | Peak values for overall tracked memory usage (after allocating hessian_basis_wave):
          |   Minimum:        1.612 MB (on task 1)
          |   Maximum:        1.612 MB (on task 1)
          |   Average:        1.612 MB
          | Largest tracked array allocation (hessian_basis_wave):
          |   Minimum:        0.788 MB (on task 1)
          |   Maximum:        0.788 MB (on task 1)
          |   Average:        0.788 MB
          Note:  These values currently only include a subset of arrays which are explicitly tracked.
          The "true" memory usage will be greater.

          Have a nice day.
------------------------------------------------------------
