  MPI-parallelism will be employed.
------------------------------------------------------------
          Invoking FHI-aims ...
          Version 171221_1
          Compiled on 2019/09/09 at 14:39:39 on host puhti-login2.bullx.

          When using FHI-aims, please cite the following reference:

          Volker Blum, Ralf Gehrke, Felix Hanke, Paula Havu,
          Ville Havu, Xinguo Ren, Karsten Reuter, and Matthias Scheffler,
          'Ab Initio Molecular Simulations with Numeric Atom-Centered Orbitals',
          Computer Physics Communications 180, 2175-2196 (2009)

          For any questions about FHI-aims, please visit the aimsclub website
          with its forums and wiki. Contributions to both the forums and the
          wiki are warmly encouraged - they are for you, and everyone is welcome there.

------------------------------------------------------------



  Date     :  20200801, Time     :  171416.679
  Time zero on CPU 1             :   0.130510000000000E-01  s.
  Internal wall clock time zero  :           365534056.679  s.

  FHI-aims created a unique identifier for this run for later identification
  aims_uuid : 11E1940C-4B70-42A8-A72A-44D2D320FA86

  Using        1 parallel tasks.
  Task        0 on host r13c02.bullx reporting.

  Performing system and environment tests:
  | Environment variable OMP_NUM_THREADS correctly set to 1.
  | Stacksize not measured: no C compiler
  | Checking for scalapack...
  | Testing pdtran()...
  | All pdtran() tests passed.

  Obtaining array dimensions for all initial allocations:
  
  -----------------------------------------------------------------------
  Parsing control.in (first pass over file, find array dimensions only).
  The contents of control.in will be repeated verbatim below
  unless switched off by setting 'verbatim_writeout .false.' .
  in the first line of control.in .
  -----------------------------------------------------------------------
  
  #########################################################################################
  #
  #  Volker Blum, FHI 2009 : Test run input file control.in for simple H2O
  #
  #########################################################################################
  #
  #  Physical model
  #
    xc                 pbe
    vdw_correction_hirshfeld
    spin               none
    relativistic       none
    charge             0.
  #
  #  SCF convergence
  #
    occupation_type    gaussian 0.01
    mixer              pulay
      n_max_pulay        10
      charge_mix_param   0.2
    sc_accuracy_rho    1E-5
    sc_accuracy_eev    1E-3
    sc_accuracy_etot   1E-6
    sc_accuracy_forces 1E-4
    sc_iter_limit      100
  #
  #  Relaxation
  #
  #  relax_geometry   bfgs 1.e-3
  #
  ################################################################################
  #
  #  FHI-aims code project
  #  VB, Fritz-Haber Institut, 2009
  #
  #  Suggested "light" defaults for H atom (to be pasted into control.in file)
  #  Be sure to double-check any results obtained with these settings for post-processing,
  #  e.g., with the "tight" defaults and larger basis sets.
  #
  ################################################################################
    species        H
  #     global species definitions
      nucleus             1
      mass                1.00794
  #
      l_hartree           4
  #
      cut_pot             3.5  1.5  1.0
      basis_dep_cutoff    1e-4
  #
      radial_base         24 5.0
      radial_multiplier   1
      angular_grids       specified
        division   0.2421   50
        division   0.3822  110
        division   0.4799  194
        division   0.5341  302
  #      division   0.5626  434
  #      division   0.5922  590
  #      division   0.6542  770
  #      division   0.6868 1202
  #      outer_grid  770
        outer_grid  302
  ################################################################################
  #
  #  Definition of "minimal" basis
  #
  ################################################################################
  #     valence basis states
      valence      1  s   1.
  #     ion occupancy
      ion_occ      1  s   0.5
  ################################################################################
  #
  #  Suggested additional basis functions. For production calculations,
  #  uncomment them one after another (the most important basis functions are
  #  listed first).
  #
  #  Basis constructed for dimers: 0.5 A, 0.7 A, 1.0 A, 1.5 A, 2.5 A
  #
  ################################################################################
  #  "First tier" - improvements: -1014.90 meV to -62.69 meV
       hydro 2 s 2.1
       hydro 2 p 3.5
  #  "Second tier" - improvements: -12.89 meV to -1.83 meV
  #     hydro 1 s 0.85
  #     hydro 2 p 3.7
  #     hydro 2 s 1.2
  #     hydro 3 d 7
  #  "Third tier" - improvements: -0.25 meV to -0.12 meV
  #     hydro 4 f 11.2
  #     hydro 3 p 4.8
  #     hydro 4 d 9
  #     hydro 3 s 3.2
  ################################################################################
  #
  #  FHI-aims code project
  #  VB, Fritz-Haber Institut, 2009
  #
  #  Suggested "light" defaults for C atom (to be pasted into control.in file)
  #  Be sure to double-check any results obtained with these settings for post-processing,
  #  e.g., with the "tight" defaults and larger basis sets.
  #
  ################################################################################
    species        C
  #     global species definitions
      nucleus             6
      mass                12.0107
  #
      l_hartree           4
  #
      cut_pot             3.5  1.5  1.0
      basis_dep_cutoff    1e-4
  #
      radial_base         34 5.0
      radial_multiplier   1
      angular_grids specified
        division   0.3326   50
        division   0.5710  110
        division   0.7727  194
        division   0.8772  302
  #      division   0.9334  434
  #      division   0.9625  590
  #      division   0.9924  770
  #      division   1.0230  974
  #      division   1.4589 1202
  #     outer_grid  974
       outer_grid 302
  ################################################################################
  #
  #  Definition of "minimal" basis
  #
  ################################################################################
  #     valence basis states
      valence      2  s   2.
      valence      2  p   2.
  #     ion occupancy
      ion_occ      2  s   1.
      ion_occ      2  p   1.
  ################################################################################
  #
  #  Suggested additional basis functions. For production calculations,
  #  uncomment them one after another (the most important basis functions are
  #  listed first).
  #
  #  Constructed for dimers: 1.0 A, 1.25 A, 1.5 A, 2.0 A, 3.0 A
  #
  ################################################################################
  #  "First tier" - improvements: -1214.57 meV to -155.61 meV
       hydro 2 p 1.7
       hydro 3 d 6
       hydro 2 s 4.9
  #  "Second tier" - improvements: -67.75 meV to -5.23 meV
  #     hydro 4 f 9.8
  #     hydro 3 p 5.2
  #     hydro 3 s 4.3
  #     hydro 5 g 14.4
  #     hydro 3 d 6.2
  #  "Third tier" - improvements: -2.43 meV to -0.60 meV
  #     hydro 2 p 5.6
  #     hydro 2 s 1.4
  #     hydro 3 d 4.9
  #     hydro 4 f 11.2
  #  "Fourth tier" - improvements: -0.39 meV to -0.18 meV
  #     hydro 2 p 2.1
  #     hydro 5 g 16.4
  #     hydro 4 d 13.2
  #     hydro 3 s 13.6
  #     hydro 4 f 17.6
  #  Further basis functions - improvements: -0.08 meV and below
  #     hydro 3 s 2
  #     hydro 3 p 6
  #     hydro 4 d 20
  ################################################################################
  #
  #  FHI-aims code project
  #  VB, Fritz-Haber Institut, 2009
  #
  #  Suggested "light" defaults for N atom (to be pasted into control.in file)
  #  Be sure to double-check any results obtained with these settings for post-processing,
  #  e.g., with the "tight" defaults and larger basis sets.
  #
  ################################################################################
    species        N
  #     global species definitions
      nucleus             7
      mass                14.0067
  #
      l_hartree           4
  #
      cut_pot             3.5  1.5  1.0
      basis_dep_cutoff    1e-4
  #
      radial_base         35 5.0
      radial_multiplier   1
      angular_grids       specified
        division   0.2599   50
        division   0.4601  110
        division   0.5885  194
        division   0.6503  302
  #      division   0.6939  434
  #      division   0.7396  590
  #      division   0.7632  770
  #      division   0.8122  974
  #      division   1.1604 1202
  #      outer_grid  974
        outer_grid  302
  ################################################################################
  #
  #  Definition of "minimal" basis
  #
  ################################################################################
  #     valence basis states
      valence      2  s   2.
      valence      2  p   3.
  #     ion occupancy
      ion_occ      2  s   1.
      ion_occ      2  p   2.
  ################################################################################
  #
  #  Suggested additional basis functions. For production calculations,
  #  uncomment them one after another (the most important basis functions are
  #  listed first).
  #
  #  Constructed for dimers: 1.0 A, 1.1 A, 1.5 A, 2.0 A, 3.0 A
  #
  ################################################################################
  #  "First tier" - improvements: -1193.42 meV to -220.60 meV
       hydro 2 p 1.8
       hydro 3 d 6.8
       hydro 3 s 5.8
  #  "Second tier" - improvements: -80.21 meV to -6.86 meV
  #     hydro 4 f 10.8
  #     hydro 3 p 5.8
  #     hydro 1 s 0.8
  #     hydro 5 g 16
  #     hydro 3 d 4.9
  #  "Third tier" - improvements: -4.29 meV to -0.53 meV
  #     hydro 3 s 16
  #     ionic 2 p auto
  #     hydro 3 d 6.6
  #     hydro 4 f 11.6
  #  "Fourth tier" - improvements: -0.75 meV to -0.25 meV
  #     hydro 2 p 4.5
  #     hydro 2 s 2.4
  #     hydro 5 g 14.4
  #     hydro 4 d 14.4
  #     hydro 4 f 16.8
  # Further basis functions - -0.21 meV and below
  #     hydro 3 p 14.8
  #     hydro 3 s 4.4
  #     hydro 3 d 19.6
  #     hydro 5 g 12.8
  ################################################################################
  #
  #  FHI-aims code project
  #  VB, Fritz-Haber Institut, 2009
  #
  #  Suggested "light" defaults for O atom (to be pasted into control.in file)
  #  Be sure to double-check any results obtained with these settings for post-processing,
  #  e.g., with the "tight" defaults and larger basis sets.
  #
  ################################################################################
    species        O
  #     global species definitions
      nucleus             8
      mass                15.9994
  #
      l_hartree           4
  #
      cut_pot             3.5  1.5  1.0
      basis_dep_cutoff    1e-4
  #
      radial_base         36 5.0
      radial_multiplier   1
       angular_grids specified
        division   0.2659   50
        division   0.4451  110
        division   0.6052  194
        division   0.7543  302
  #      division   0.8014  434
  #      division   0.8507  590
  #      division   0.8762  770
  #      division   0.9023  974
  #      division   1.2339 1202
  #      outer_grid 974
        outer_grid 302
  ################################################################################
  #
  #  Definition of "minimal" basis
  #
  ################################################################################
  #     valence basis states
      valence      2  s   2.
      valence      2  p   4.
  #     ion occupancy
      ion_occ      2  s   1.
      ion_occ      2  p   3.
  ################################################################################
  #
  #  Suggested additional basis functions. For production calculations,
  #  uncomment them one after another (the most important basis functions are
  #  listed first).
  #
  #  Constructed for dimers: 1.0 A, 1.208 A, 1.5 A, 2.0 A, 3.0 A
  #
  ################################################################################
  #  "First tier" - improvements: -699.05 meV to -159.38 meV
       hydro 2 p 1.8
       hydro 3 d 7.6
       hydro 3 s 6.4
  #  "Second tier" - improvements: -49.91 meV to -5.39 meV
  #     hydro 4 f 11.6
  #     hydro 3 p 6.2
  #     hydro 3 d 5.6
  #     hydro 5 g 17.6
  #     hydro 1 s 0.75
  #  "Third tier" - improvements: -2.83 meV to -0.50 meV
  #     ionic 2 p auto
  #     hydro 4 f 10.8
  #     hydro 4 d 4.7
  #     hydro 2 s 6.8
  #  "Fourth tier" - improvements: -0.40 meV to -0.12 meV
  #     hydro 3 p 5
  #     hydro 3 s 3.3
  #     hydro 5 g 15.6
  #     hydro 4 f 17.6
  #     hydro 4 d 14
  # Further basis functions - -0.08 meV and below
  #     hydro 3 s 2.1
  #     hydro 4 d 11.6
  #     hydro 3 p 16
  #     hydro 2 s 17.2
  
  -----------------------------------------------------------------------
  Completed first pass over input file control.in .
  -----------------------------------------------------------------------
  
  
  -----------------------------------------------------------------------
  Parsing geometry.in (first pass over file, find array dimensions only).
  The contents of geometry.in will be repeated verbatim below
  unless switched off by setting 'verbatim_writeout .false.' .
  in the first line of geometry.in .
  -----------------------------------------------------------------------
  
  atom  0.00000 0.00000 0.00000 C
  atom  1.09300 0.00000 0.00000 H
  atom  -0.47961 0.00000 -1.41207 N
  atom  -0.66472 -0.96318 -1.69463 H
  atom  -1.33236 0.55304 -1.46763 H
  atom  -0.49584 1.26211 0.72868 C
  atom  -1.58789 1.28919 0.74431 H
  atom  -0.13407 1.27425 1.75947 H
  atom  -0.13407 2.16087 0.22380 H
  atom  -0.39425 -1.28861 0.74398 C
  atom  -0.10189 -1.56493 1.88303 O
  atom  -1.10210 -2.13717 0.06896 O
  atom  -1.28052 -1.58461 -0.71066 H
  
  -----------------------------------------------------------------------
  Completed first pass over input file geometry.in .
  -----------------------------------------------------------------------
  

  Basic array size parameters:
  | Number of species                 :        4
  | Number of atoms                   :       13
  | Max. basis fn. angular momentum   :        2
  | Max. atomic/ionic basis occupied n:        2
  | Max. number of basis fn. types    :        2
  | Max. radial fns per species/type  :        3
  | Max. logarithmic grid size        :     1301
  | Max. radial integration grid size :       36
  | Max. angular integration grid size:      302
  | Max. angular grid division number :        8
  | Radial grid for Hartree potential :     1301
  | Number of spin channels           :        1

------------------------------------------------------------
          Reading file control.in.
------------------------------------------------------------
  XC: Using PBE gradient-corrected functionals.
  Spin treatment: No spin polarisation.
  Non-relativistic treatment of kinetic energy.
  Charge =   0.000000E+00: Neutral system requested explicitly.
  Occupation type: Gaussian broadening, width =   0.100000E-01 eV.
  Using pulay charge density mixing.
  Pulay mixing - number of memorized iterations:   10
  Charge density mixing - mixing parameter:     0.2000
  Convergence accuracy of self-consistent charge density:  0.1000E-04
  Convergence accuracy of sum of eigenvalues:  0.1000E-02
  Convergence accuracy of total energy:  0.1000E-05
  Convergence accuracy of forces:  0.1000E-03
  Maximum number of s.-c. iterations  :   100
 
  Reading configuration options for species H                   .
  | Found nuclear charge :   1.0000
  | Found atomic mass :    1.00794000000000      amu
  | Found l_max for Hartree potential  :   4
  | Found cutoff potl. onset [A], width [A], scale factor :    3.50000    1.50000    1.00000
  | Threshold for basis-dependent cutoff potential is   0.100000E-03
  | Found data for basic radial integration grid :    24 points, outermost radius =    5.000 A
  | Found multiplier for basic radial grid :   1
  | Found angular grid specification: user-specified.
  | Specified grid contains     5 separate shells.
  | Check grid settings after all constraints further below.
  | Found free-atom valence shell :  1 s   1.000
  | No ionic wave fns used. Skipping ion_occ.
  | Found hydrogenic basis function :  2 s   2.100
  | Found hydrogenic basis function :  2 p   3.500
  Species H                   : Missing cutoff potential type.
  Defaulting to exp(1/x)/(1-x)^2 type cutoff potential.
  Species H : No 'logarithmic' tag. Using default grid for free atom:
  | Default logarithmic grid data [bohr] : 0.1000E-03 0.1000E+03 0.1012E+01
  Species H : On-site basis accuracy parameter (for Gram-Schmidt orthonormalisation) not specified.
  Using default value basis_acc =  0.1000000E-03.
  Species H                   : Using default innermost maximum threshold i_radial=  2 for radial functions.
  Species H                   : Default cutoff onset for free atom density etc. : 0.35000000E+01 AA.
  Species H                   : Basic radial grid will be enhanced according to radial_multiplier =   1, to contain    24 grid points.
 
  Reading configuration options for species C                   .
  | Found nuclear charge :   6.0000
  | Found atomic mass :    12.0107000000000      amu
  | Found l_max for Hartree potential  :   4
  | Found cutoff potl. onset [A], width [A], scale factor :    3.50000    1.50000    1.00000
  | Threshold for basis-dependent cutoff potential is   0.100000E-03
  | Found data for basic radial integration grid :    34 points, outermost radius =    5.000 A
  | Found multiplier for basic radial grid :   1
  | Found angular grid specification: user-specified.
  | Specified grid contains     5 separate shells.
  | Check grid settings after all constraints further below.
  | Found free-atom valence shell :  2 s   2.000
  | Found free-atom valence shell :  2 p   2.000
  | No ionic wave fns used. Skipping ion_occ.
  | No ionic wave fns used. Skipping ion_occ.
  | Found hydrogenic basis function :  2 p   1.700
  | Found hydrogenic basis function :  3 d   6.000
  | Found hydrogenic basis function :  2 s   4.900
  Species C                   : Missing cutoff potential type.
  Defaulting to exp(1/x)/(1-x)^2 type cutoff potential.
  Species C : No 'logarithmic' tag. Using default grid for free atom:
  | Default logarithmic grid data [bohr] : 0.1000E-03 0.1000E+03 0.1012E+01
  Species C : On-site basis accuracy parameter (for Gram-Schmidt orthonormalisation) not specified.
  Using default value basis_acc =  0.1000000E-03.
  Species C                   : Using default innermost maximum threshold i_radial=  2 for radial functions.
  Species C                   : Default cutoff onset for free atom density etc. : 0.35000000E+01 AA.
  Species C                   : Basic radial grid will be enhanced according to radial_multiplier =   1, to contain    34 grid points.
 
  Reading configuration options for species N                   .
  | Found nuclear charge :   7.0000
  | Found atomic mass :    14.0067000000000      amu
  | Found l_max for Hartree potential  :   4
  | Found cutoff potl. onset [A], width [A], scale factor :    3.50000    1.50000    1.00000
  | Threshold for basis-dependent cutoff potential is   0.100000E-03
  | Found data for basic radial integration grid :    35 points, outermost radius =    5.000 A
  | Found multiplier for basic radial grid :   1
  | Found angular grid specification: user-specified.
  | Specified grid contains     5 separate shells.
  | Check grid settings after all constraints further below.
  | Found free-atom valence shell :  2 s   2.000
  | Found free-atom valence shell :  2 p   3.000
  | No ionic wave fns used. Skipping ion_occ.
  | No ionic wave fns used. Skipping ion_occ.
  | Found hydrogenic basis function :  2 p   1.800
  | Found hydrogenic basis function :  3 d   6.800
  | Found hydrogenic basis function :  3 s   5.800
  Species N                   : Missing cutoff potential type.
  Defaulting to exp(1/x)/(1-x)^2 type cutoff potential.
  Species N : No 'logarithmic' tag. Using default grid for free atom:
  | Default logarithmic grid data [bohr] : 0.1000E-03 0.1000E+03 0.1012E+01
  Species N : On-site basis accuracy parameter (for Gram-Schmidt orthonormalisation) not specified.
  Using default value basis_acc =  0.1000000E-03.
  Species N                   : Using default innermost maximum threshold i_radial=  2 for radial functions.
  Species N                   : Default cutoff onset for free atom density etc. : 0.35000000E+01 AA.
  Species N                   : Basic radial grid will be enhanced according to radial_multiplier =   1, to contain    35 grid points.
 
  Reading configuration options for species O                   .
  | Found nuclear charge :   8.0000
  | Found atomic mass :    15.9994000000000      amu
  | Found l_max for Hartree potential  :   4
  | Found cutoff potl. onset [A], width [A], scale factor :    3.50000    1.50000    1.00000
  | Threshold for basis-dependent cutoff potential is   0.100000E-03
  | Found data for basic radial integration grid :    36 points, outermost radius =    5.000 A
  | Found multiplier for basic radial grid :   1
  | Found angular grid specification: user-specified.
  | Specified grid contains     5 separate shells.
  | Check grid settings after all constraints further below.
  | Found free-atom valence shell :  2 s   2.000
  | Found free-atom valence shell :  2 p   4.000
  | No ionic wave fns used. Skipping ion_occ.
  | No ionic wave fns used. Skipping ion_occ.
  | Found hydrogenic basis function :  2 p   1.800
  | Found hydrogenic basis function :  3 d   7.600
  | Found hydrogenic basis function :  3 s   6.400
  Species O                   : Missing cutoff potential type.
  Defaulting to exp(1/x)/(1-x)^2 type cutoff potential.
  Species O : No 'logarithmic' tag. Using default grid for free atom:
  | Default logarithmic grid data [bohr] : 0.1000E-03 0.1000E+03 0.1012E+01
  Species O : On-site basis accuracy parameter (for Gram-Schmidt orthonormalisation) not specified.
  Using default value basis_acc =  0.1000000E-03.
  Species O                   : Using default innermost maximum threshold i_radial=  2 for radial functions.
  Species O                   : Default cutoff onset for free atom density etc. : 0.35000000E+01 AA.
  Species O                   : Basic radial grid will be enhanced according to radial_multiplier =   1, to contain    36 grid points.
 
  Finished reading input file 'control.in'. Consistency checks are next.
 
  MPI_IN_PLACE appears to work with this MPI implementation.
  | Keeping use_mpi_in_place .true. (see manual).
  Target number of points in a grid batch is not set. Defaulting to  100
  Method for grid partitioning is not set. Defaulting to parallel hash+maxmin partitioning.
  Batch size limit is not set. Defaulting to    200
  By default, will store active basis functions for each batch.
  If in need of memory, prune_basis_once .false. can be used to disable this option.
  communication_type for Hartree potential was not specified.
  Defaulting to calc_hartree .
  Pulay mixer: Number of initial linear mixing iterations not set.
  Defaulting to    0 iterations.
  Work space size for distributed Hartree potential not set.
  Defaulting to   0.200000E+03 MB.
  Algorithm-dependent basis array size parameters:
  | n_max_pulay                         :       10
  Presetting      1001 iterations before the initial mixing cycle
  is restarted anyway using the sc_init_iter criterion / keyword.
  Presetting a factor      1.000 between actual scf density residual
  and density convergence criterion sc_accuracy_rho below which sc_init_iter
  takes no effect.
  Geometry relaxation not requested: no relaxation will be performed.
  Handling of forces: Unphysical translation and rotation will be removed from forces.
  No accuracy limit for integral partition fn. given. Defaulting to  0.1000E-14.
  No threshold value for u(r) in integrations given. Defaulting to  0.1000E-05.
  No accuracy for occupation numbers given. Defaulting to  0.1000E-12.
  No threshold value for occupation numbers given. Defaulting to  0.0000E+00.
  No accuracy for fermi level given. Defaulting to  0.1000E-19.
  Maximum # of iterations to find E_F not set. Defaulting to  200.
  Preferred method for the eigenvalue solver ('KS_method') not specified in 'control.in'.
  Defaulting to serial version, 'lapack_fast'.
  Will not use alltoall communication since running on < 1024 CPUs.
  Threshold for basis singularities not set.
  Default threshold for basis singularities:  0.1000E-04
  partition_type (choice of integration weights) for integrals was not specified.
  | Using a version of the partition function of Stratmann and coworkers ('stratmann_smoother').
  | At each grid point, the set of atoms used to build the partition table is smoothly restricted to
  | only those atoms whose free-atom density would be non-zero at that grid point.
  Partitioning for Hartree potential was not defined. Using partition_type for integrals.
  | Adjusted default value of keyword multip_moments_threshold to:       0.10000000E-11
  | This value may affect high angular momentum components of the Hartree potential in periodic systems.
  No q(lm)/r^(l+1) cutoff set for long-range Hartree potential.
  | Using default value of  0.100000E-09 .
  | Verify using the multipole_threshold keyword.
  Defaulting to new monopole extrapolation.
  Density update method: automatic selection selected.
------------------------------------------------------------


------------------------------------------------------------
          Reading geometry description geometry.in.
------------------------------------------------------------
  Input structure read successfully.
  The structure contains       13 atoms,  and a total of         48.000 electrons.

  Input geometry:
  | No unit cell requested.
  | Atomic structure:
  |       Atom                x [A]            y [A]            z [A]
  |    1: Species C             0.00000000        0.00000000        0.00000000
  |    2: Species H             1.09300000        0.00000000        0.00000000
  |    3: Species N            -0.47961000        0.00000000       -1.41207000
  |    4: Species H            -0.66472000       -0.96318000       -1.69463000
  |    5: Species H            -1.33236000        0.55304000       -1.46763000
  |    6: Species C            -0.49584000        1.26211000        0.72868000
  |    7: Species H            -1.58789000        1.28919000        0.74431000
  |    8: Species H            -0.13407000        1.27425000        1.75947000
  |    9: Species H            -0.13407000        2.16087000        0.22380000
  |   10: Species C            -0.39425000       -1.28861000        0.74398000
  |   11: Species O            -0.10189000       -1.56493000        1.88303000
  |   12: Species O            -1.10210000       -2.13717000        0.06896000
  |   13: Species H            -1.28052000       -1.58461000       -0.71066000
  |

  | The smallest distance between any two atoms is         0.97209238 AA.
  |
  | The first atom of this pair is atom number                     12 .
  | The second atom of this pair is atom number                    13 .

  Number of empty states per atom not set in control.in - providing a guess from actual geometry.
  | Total number of empty states used during s.c.f. cycle:       29
  If you use a very high smearing, use empty_states (per atom!) in control.in to increase this value.

  Structure-dependent array size parameters: 
  | Maximum number of distinct radial functions  :       21
  | Maximum number of basis functions            :      119
  | Number of Kohn-Sham states (occupied + empty):       53
------------------------------------------------------------

------------------------------------------------------------
          Preparing all fixed parts of the calculation.
------------------------------------------------------------
  Determining machine precision:
    2.225073858507201E-308
  Setting up grids for atomic and cluster calculations.

  Creating wave function, potential, and density for free atoms.

  Species: H

  List of occupied orbitals and eigenvalues:
    n    l              occ      energy [Ha]    energy [eV]
    1    0           1.0000        -0.237589        -6.4651


  Species: C

  List of occupied orbitals and eigenvalues:
    n    l              occ      energy [Ha]    energy [eV]
    1    0           2.0000       -10.038835      -273.1706
    2    0           2.0000        -0.502696       -13.6791
    2    1           2.0000        -0.191971        -5.2238


  Species: N

  List of occupied orbitals and eigenvalues:
    n    l              occ      energy [Ha]    energy [eV]
    1    0           2.0000       -14.128000      -384.4424
    2    0           2.0000        -0.681077       -18.5330
    2    1           3.0000        -0.259788        -7.0692


  Species: O

  List of occupied orbitals and eigenvalues:
    n    l              occ      energy [Ha]    energy [eV]
    1    0           2.0000       -18.898188      -514.2459
    2    0           2.0000        -0.878505       -23.9053
    2    1           4.0000        -0.331779        -9.0282

  Creating fixed part of basis set: Ionic, confined, hydrogenic.
 
  H                    hydrogenic:
 
  List of hydrogenic basis orbitals: 
    n    l      effective z      eigenvalue [eV]  inner max. [A]     outer max. [A]     outer radius [A]   
    2    0         2.100000       -14.9728           0.193243           1.317208           4.583499
    2    1         3.500000       -41.6669           0.602369           0.602369           3.723403
 
 
  C                    hydrogenic:
 
  List of hydrogenic basis orbitals: 
    n    l      effective z      eigenvalue [eV]  inner max. [A]     outer max. [A]     outer radius [A]   
    2    1         1.700000        -9.7616           1.230570           1.230570           4.607917
    3    2         6.000000       -54.4224           0.792453           0.792453           3.883070
    2    0         4.900000       -81.6679           0.082559           0.562749           3.078220
 
 
  N                    hydrogenic:
 
  List of hydrogenic basis orbitals: 
    n    l      effective z      eigenvalue [eV]  inner max. [A]     outer max. [A]     outer radius [A]   
    2    1         1.800000       -10.9749           1.177451           1.177451           4.573712
    3    2         6.800000       -69.9026           0.704619           0.704619           3.538137
    3    0         5.800000       -50.8545           0.067388           1.191934           4.250239
 
 
  O                    hydrogenic:
 
  List of hydrogenic basis orbitals: 
    n    l      effective z      eigenvalue [eV]  inner max. [A]     outer max. [A]     outer radius [A]   
    2    1         1.800000       -10.9749           1.164242           1.164242           4.578029
    3    2         7.600000       -87.3180           0.624125           0.624125           3.251020
    3    0         6.400000       -61.9207           0.061167           1.081902           4.001998
 

  Adding cutoff potential to free-atom effective potential.
  Creating atomic-like basis functions for current effective potential.

  Species H                   :

  List of atomic basis orbitals and eigenvalues:
    n    l      energy [Ha]    energy [eV]    outer radius [A]
    1    0        -0.237589        -6.4651       4.527807


  Species C                   :

  List of atomic basis orbitals and eigenvalues:
    n    l      energy [Ha]    energy [eV]    outer radius [A]
    1    0       -10.038835      -273.1706       1.934409
    2    0        -0.502696       -13.6791       4.496620
    2    1        -0.191971        -5.2238       4.551928


  Species N                   :

  List of atomic basis orbitals and eigenvalues:
    n    l      energy [Ha]    energy [eV]    outer radius [A]
    1    0       -14.128000      -384.4424       1.637919
    2    0        -0.681077       -18.5330       4.463241
    2    1        -0.259788        -7.0692       4.518138


  Species O                   :

  List of atomic basis orbitals and eigenvalues:
    n    l      energy [Ha]    energy [eV]    outer radius [A]
    1    0       -18.898188      -514.2459       1.415765
    2    0        -0.878505       -23.9053       4.413171
    2    1        -0.331779        -9.0282       4.522403

  Assembling full basis from fixed parts.
  | Species H :   atomic orbital   1 s accepted.
  | Species H :    hydro orbital   2 s accepted.
  | Species H :    hydro orbital   2 p accepted.
  | Species C :   atomic orbital   1 s accepted.
  | Species C :    hydro orbital   2 s accepted.
  | Species C :   atomic orbital   2 s accepted.
  | Species C :   atomic orbital   2 p accepted.
  | Species C :    hydro orbital   2 p accepted.
  | Species C :    hydro orbital   3 d accepted.
  | Species N :   atomic orbital   1 s accepted.
  | Species N :    hydro orbital   3 s accepted.
  | Species N :   atomic orbital   2 s accepted.
  | Species N :   atomic orbital   2 p accepted.
  | Species N :    hydro orbital   2 p accepted.
  | Species N :    hydro orbital   3 d accepted.
  | Species O :   atomic orbital   1 s accepted.
  | Species O :    hydro orbital   3 s accepted.
  | Species O :   atomic orbital   2 s accepted.
  | Species O :   atomic orbital   2 p accepted.
  | Species O :    hydro orbital   2 p accepted.
  | Species O :    hydro orbital   3 d accepted.
 
  Basis size parameters after reduction:
  | Total number of radial functions:       21
  | Total number of basis functions :      119
 
  Per-task memory consumption for arrays in subroutine allocate_ext:
  |           5.250512MB.
  Testing on-site integration grid accuracy.
  |  Species  Function  <phi|h_atom|phi> (log., in eV)  <phi|h_atom|phi> (rad., in eV)
           1        1                 -6.4663192853                 -6.4651273558
           1        2                 13.7111246313                 13.7170609718
           1        3                 25.2673269279                 25.2674696378
           2        4               -273.1705927641               -273.1705631568
           2        5                -10.7109323383                -10.7107120029
           2        6                 17.4381822266                 17.4352413244
           2        7                 -5.2255326521                 -5.2270484734
           2        8                  8.6835629259                  8.6603288385
           2        9                 27.4952418996                 27.4953360207
           3       10               -384.4424306495               -384.4423701208
           3       11                 12.5842251816                 12.5842222903
           3       12                -15.7264628251                -15.7264433455
           3       13                 -7.0696854293                 -7.0701769954
           3       14                  8.8090390882                  8.7901077751
           3       15                 35.9586762123                 35.9588528632
           4       16               -514.2458688638               -514.2457643834
           4       17                 15.1795651126                 15.1795290741
           4       18                -21.5359799773                -21.5360846186
           4       19                 -9.0283069236                 -9.0284644067
           4       20                  8.3027758564                  8.2834874195
           4       21                 45.8339351984                 45.8338762259

  Preparing densities etc. for the partition functions (integrals / Hartree potential).

  Preparations completed.
  max(cpu_time)          :      0.157 s.
  Wall clock time (cpu1) :      0.158 s.
------------------------------------------------------------

------------------------------------------------------------
          Begin self-consistency loop: Initialization.

          Date     :  20200801, Time     :  171416.853
------------------------------------------------------------

  Initializing index lists of integration centers etc. from given atomic structure:
  | Number of centers in hartree potential         :        13
  | Number of centers in hartree multipole         :        13
  | Number of centers in electron density summation:        13
  | Number of centers in basis integrals           :        13
  | Number of centers in integrals                 :        13
  | Number of centers in hamiltonian               :        13
  Partitioning the integration grid into batches with parallel hashing+maxmin method.
  | Number of batches:      958
  | Maximal batch size:     139
  | Minimal batch size:      66
  | Average batch size:      72.699
  | Standard deviation of batch sizes:      17.252

  Integration load balanced across     1 MPI tasks.
  Work distribution over tasks is as follows:
  Task     0 has      69646 integration points.
  Initializing partition tables, free-atom densities, potentials, etc. across the integration grid (initialize_grid_storage).
  | initialize_grid_storage: Actual outermost partition radius vs. multipole_radius_free
  | (-- VB: in principle, multipole_radius_free should be larger, hence this output)
  | Species        1: Confinement radius =              4.999999999999999 AA, multipole_radius_free =              5.054417573612229 AA.
  | Species        1: outer_partition_radius set to              5.054417573612229 AA .
  | Species        2: Confinement radius =              4.999999999999999 AA, multipole_radius_free =              5.019602836301480 AA.
  | Species        2: outer_partition_radius set to              5.019602836301480 AA .
  | Species        3: Confinement radius =              4.999999999999999 AA, multipole_radius_free =              5.043624274424571 AA.
  | Species        3: outer_partition_radius set to              5.043624274424571 AA .
  | Species        4: Confinement radius =              4.999999999999999 AA, multipole_radius_free =              5.048384829883283 AA.
  | Species        4: outer_partition_radius set to              5.048384829883283 AA .
  | Original list of interatomic distances with          13 x         13 entries is created.
  | Net number of integration points:    69646
  | of which are non-zero points    :    59278
  Renormalizing the initial density to the exact electron count on the 3D integration grid.
  | Initial density: Formal number of electrons (from input files) :      48.0000000000
  | Integrated number of electrons on 3D grid     :      47.9999565635
  | Charge integration error                      :      -0.0000434365
  | Normalization factor for density and gradient :       1.0000009049
  Obtaining max. number of non-zero basis functions in each batch (get_n_compute_maxes).
  | Maximal number of non-zero basis functions:      119 in task     0
  Selecting the method for density update.
  Loop over occupied states selected for charge density update.
  Allocating        0.050 MB for KS_eigenvector
  Integrating Hamiltonian matrix: batch-based integration.
  Time summed over all CPUs for integration: real work        0.510 s, elapsed        0.510 s
  Integrating overlap matrix.
  Time summed over all CPUs for integration: real work        0.215 s, elapsed        0.215 s

  Updating Kohn-Sham eigenvalues and eigenvectors using ELSI and the ELPA eigensolver.
  Overlap matrix is nonsingular
  | Lowest eigenvalue of overlap  :  0.44E-02
  | Highest eigenvalue of overlap :  0.65E+01
  Finished singularity check of overlap matrix
  | Time :     0.002 s
  Finished Cholesky decomposition
  | Time :     0.000 s
  Finished transformation to standard eigenproblem
  | Time :     0.000 s
  Starting LAPACK eigensolver
  Finished solving standard eigenproblem
  | Time :     0.002 s
  Finished back-transformation of eigenvectors
  | Time :     0.000 s

  Obtaining occupation numbers and chemical potential using ELSI.
  | Chemical potential (Fermi level):    -9.42544081eV
  Writing Kohn-Sham eigenvalues.

  State    Occupation    Eigenvalue [Ha]    Eigenvalue [eV]
      1       2.00000         -19.008258         -517.24102
      2       2.00000         -18.977118         -516.39365
      3       2.00000         -14.247688         -387.69931
      4       2.00000         -10.166839         -276.65377
      5       2.00000         -10.142026         -275.97856
      6       2.00000         -10.132134         -275.70939
      7       2.00000          -1.183607          -32.20758
      8       2.00000          -1.103195          -30.01947
      9       2.00000          -0.996212          -27.10831
     10       2.00000          -0.861659          -23.44693
     11       2.00000          -0.755092          -20.54710
     12       2.00000          -0.685520          -18.65394
     13       2.00000          -0.645969          -17.57772
     14       2.00000          -0.610366          -16.60891
     15       2.00000          -0.586319          -15.95456
     16       2.00000          -0.557270          -15.16410
     17       2.00000          -0.545193          -14.83545
     18       2.00000          -0.532907          -14.50115
     19       2.00000          -0.516137          -14.04481
     20       2.00000          -0.495499          -13.48323
     21       2.00000          -0.478506          -13.02081
     22       2.00000          -0.431128          -11.73159
     23       2.00000          -0.422045          -11.48443
     24       2.00000          -0.380992          -10.36732
     25       0.00000          -0.148541           -4.04201
     26       0.00000          -0.072860           -1.98261
     27       0.00000          -0.028765           -0.78275
     28       0.00000          -0.025831           -0.70290
     29       0.00000          -0.002267           -0.06170
     30       0.00000           0.009350            0.25442
     31       0.00000           0.024952            0.67898
     32       0.00000           0.033000            0.89799
     33       0.00000           0.054726            1.48916
     34       0.00000           0.078457            2.13492
     35       0.00000           0.098927            2.69195
     36       0.00000           0.135726            3.69329
     37       0.00000           0.163148            4.43949
     38       0.00000           0.199535            5.42963
     39       0.00000           0.217414            5.91615
     40       0.00000           0.225826            6.14504
     41       0.00000           0.249963            6.80184
     42       0.00000           0.265657            7.22890
     43       0.00000           0.295040            8.02844
     44       0.00000           0.299127            8.13967
     45       0.00000           0.311566            8.47815
     46       0.00000           0.350970            9.55038
     47       0.00000           0.365287            9.93997
     48       0.00000           0.379006           10.31329
     49       0.00000           0.420971           11.45521
     50       0.00000           0.472660           12.86175
     51       0.00000           0.521820           14.19945
     52       0.00000           0.536239           14.59180
     53       0.00000           0.571419           15.54910

  Highest occupied state (VBM) at    -10.36731771 eV
  | Occupation number:      2.00000000

  Lowest unoccupied state (CBM) at    -4.04200752 eV
  | Occupation number:      0.00000000

  Overall HOMO-LUMO gap:      6.32531019 eV.
  Calculating total energy contributions from superposition of free atom densities.

  Total energy components:
  | Sum of eigenvalues            :        -188.92335941 Ha       -5140.86617401 eV
  | XC energy correction          :         -41.82389014 Ha       -1138.08595599 eV
  | XC potential correction       :          53.76816457 Ha        1463.10620000 eV
  | Free-atom electrostatic energy:        -146.76841474 Ha       -3993.77176605 eV
  | Hartree energy correction     :           0.00000000 Ha           0.00000000 eV
  | vdW energy correction         :           0.00000000 Ha           0.00000000 eV
  | Entropy correction            :           0.00000000 Ha           0.00000000 eV
  | ---------------------------
  | Total energy                  :        -323.74749973 Ha       -8809.61769605 eV
  | Total energy, T -> 0          :        -323.74749973 Ha       -8809.61769605 eV  <-- do not rely on this value for anything but (periodic) metals
  | Electronic free energy        :        -323.74749973 Ha       -8809.61769605 eV

  Derived energy quantities:
  | Kinetic energy                :         320.57939187 Ha        8723.40909489 eV
  | Electrostatic energy          :        -602.50300145 Ha      -16394.94083494 eV
  | Energy correction for multipole
  | error in Hartree potential    :           0.00000000 Ha           0.00000000 eV
  | Sum of eigenvalues per atom                           :        -395.45124415 eV
  | Total energy (T->0) per atom                          :        -677.66289970 eV  <-- do not rely on this value for anything but (periodic) metals
  | Electronic free energy per atom                       :        -677.66289970 eV
  Initialize hartree_potential_storage
  Max. number of atoms included in rho_multipole:           13

  End scf initialization - timings             :  max(cpu_time)    wall_clock(cpu1)
  | Time for scf. initialization               :        1.189 s           1.191 s
  | Boundary condition initialization          :        0.000 s           0.000 s
  | Integration                                :        0.725 s           0.725 s
  | Solution of K.-S. eqns.                    :        0.004 s           0.004 s
  | Grid partitioning                          :        0.115 s           0.115 s
  | Preloading free-atom quantities on grid    :        0.002 s           0.002 s
  | Free-atom superposition energy             :        0.086 s           0.087 s
  | Total energy evaluation                    :        0.000 s           0.000 s

  Partial memory accounting:
  | Current value for overall tracked memory usage on task 0  :           0.165 MB
  | Peak value for overall tracked memory usage on task 0     :           0.678 MB after allocating wave
  | Largest tracked array allocation on task 0 so far         :           0.132 MB  when allocating H_times_psi
  Note:  These values currently only include a subset of arrays which are explicitly tracked.
  The "true" memory usage will be greater.
------------------------------------------------------------

------------------------------------------------------------
          Begin self-consistency iteration #    1

  Date     :  20200801, Time     :  171418.044
------------------------------------------------------------
  Evaluating new KS density.
  Integration grid: deviation in total charge (<rho> - N_e) =  -1.421085E-14
  Pulay mixing of updated and previous charge densities.

  Evaluating partitioned Hartree potential by multipole expansion.
  | Analytical far-field extrapolation by fixed multipoles:
  | Hartree multipole sum: apparent total charge =  -0.143755E-03
  Summing up the Hartree potential.
  Time summed over all CPUs for potential: real work        0.283 s, elapsed        0.283 s
  | RMS charge density error from multipole expansion :   0.597527E-02

  Integrating Hamiltonian matrix: batch-based integration.
  Time summed over all CPUs for integration: real work        0.508 s, elapsed        0.508 s

  Updating Kohn-Sham eigenvalues and eigenvectors using ELSI and the ELPA eigensolver.
  Finished Cholesky decomposition
  | Time :     0.000 s
  Finished transformation to standard eigenproblem
  | Time :     0.000 s
  Starting LAPACK eigensolver
  Finished solving standard eigenproblem
  | Time :     0.002 s
  Finished back-transformation of eigenvectors
  | Time :     0.000 s

  Obtaining occupation numbers and chemical potential using ELSI.
  | Chemical potential (Fermi level):    -4.32382462eV
  Writing Kohn-Sham eigenvalues.

  State    Occupation    Eigenvalue [Ha]    Eigenvalue [eV]
      1       2.00000         -18.912503         -514.63540
      2       2.00000         -18.829353         -512.37277
      3       2.00000         -14.115693         -384.10755
      4       2.00000         -10.114578         -275.23167
      5       2.00000         -10.069482         -274.00455
      6       2.00000         -10.036147         -273.09746
      7       2.00000          -1.137717          -30.95887
      8       2.00000          -1.037634          -28.23547
      9       2.00000          -0.938007          -25.52447
     10       2.00000          -0.801500          -21.80993
     11       2.00000          -0.706011          -19.21153
     12       2.00000          -0.644886          -17.54824
     13       2.00000          -0.596198          -16.22337
     14       2.00000          -0.561077          -15.26769
     15       2.00000          -0.529472          -14.40767
     16       2.00000          -0.495947          -13.49541
     17       2.00000          -0.489631          -13.32353
     18       2.00000          -0.479230          -13.04050
     19       2.00000          -0.455533          -12.39568
     20       2.00000          -0.441815          -12.02240
     21       2.00000          -0.427124          -11.62263
     22       2.00000          -0.368322          -10.02256
     23       2.00000          -0.353748           -9.62598
     24       2.00000          -0.312931           -8.51527
     25       0.00000          -0.110810           -3.01530
     26       0.00000          -0.052398           -1.42582
     27       0.00000           0.002659            0.07235
     28       0.00000           0.013824            0.37618
     29       0.00000           0.024428            0.66473
     30       0.00000           0.045942            1.25015
     31       0.00000           0.056187            1.52891
     32       0.00000           0.068309            1.85878
     33       0.00000           0.093220            2.53663
     34       0.00000           0.107437            2.92350
     35       0.00000           0.132729            3.61173
     36       0.00000           0.163111            4.43848
     37       0.00000           0.185450            5.04635
     38       0.00000           0.227981            6.20368
     39       0.00000           0.242604            6.60160
     40       0.00000           0.255343            6.94824
     41       0.00000           0.281825            7.66884
     42       0.00000           0.298620            8.12587
     43       0.00000           0.328477            8.93832
     44       0.00000           0.331231            9.01325
     45       0.00000           0.348311            9.47802
     46       0.00000           0.388197           10.56338
     47       0.00000           0.402856           10.96227
     48       0.00000           0.414951           11.29139
     49       0.00000           0.454250           12.36077
     50       0.00000           0.506271           13.77633
     51       0.00000           0.554544           15.08991
     52       0.00000           0.563734           15.34000
     53       0.00000           0.603444           16.42055

  Highest occupied state (VBM) at     -8.51527237 eV
  | Occupation number:      2.00000000

  Lowest unoccupied state (CBM) at    -3.01530334 eV
  | Occupation number:      0.00000000

  Overall HOMO-LUMO gap:      5.49996903 eV.

  Total energy components:
  | Sum of eigenvalues            :        -185.70907991 Ha       -5053.40117854 eV
  | XC energy correction          :         -42.14231819 Ha       -1146.75082405 eV
  | XC potential correction       :          54.18211463 Ha        1474.37035409 eV
  | Free-atom electrostatic energy:        -146.76841474 Ha       -3993.77176605 eV
  | Hartree energy correction     :          -3.13762958 Ha         -85.37924501 eV
  | vdW energy correction         :           0.00000000 Ha           0.00000000 eV
  | Entropy correction            :           0.00000000 Ha           0.00000000 eV
  | ---------------------------
  | Total energy                  :        -323.57532780 Ha       -8804.93265957 eV
  | Total energy, T -> 0          :        -323.57532780 Ha       -8804.93265957 eV  <-- do not rely on this value for anything but (periodic) metals
  | Electronic free energy        :        -323.57532780 Ha       -8804.93265957 eV

  Derived energy quantities:
  | Kinetic energy                :         322.31879363 Ha        8770.74062500 eV
  | Electrostatic energy          :        -603.75180324 Ha      -16428.92246051 eV
  | Energy correction for multipole
  | error in Hartree potential    :           0.01206196 Ha           0.32822262 eV
  | Sum of eigenvalues per atom                           :        -388.72316758 eV
  | Total energy (T->0) per atom                          :        -677.30251227 eV  <-- do not rely on this value for anything but (periodic) metals
  | Electronic free energy per atom                       :        -677.30251227 eV

  Self-consistency convergence accuracy:
  | Change of charge density      :  0.5728E+00
  | Change of sum of eigenvalues  :  0.8746E+02 eV
  | Change of total energy        :  0.4685E+01 eV

  End self-consistency iteration #     1       :  max(cpu_time)    wall_clock(cpu1)
  | Time for this iteration                    :        1.213 s           1.215 s
  | Charge density update                      :        0.403 s           0.403 s
  | Density mixing                             :        0.006 s           0.006 s
  | Hartree multipole update                   :        0.009 s           0.010 s
  | Hartree multipole summation                :        0.284 s           0.284 s
  | Integration                                :        0.508 s           0.508 s
  | Solution of K.-S. eqns.                    :        0.002 s           0.002 s
  | Total energy evaluation                    :        0.000 s           0.001 s

  Partial memory accounting:
  | Current value for overall tracked memory usage on task 0  :           0.165 MB
  | Peak value for overall tracked memory usage on task 0     :           0.695 MB after allocating gradient_basis_wave
  | Largest tracked array allocation on task 0 so far         :           0.397 MB  when allocating gradient_basis_wave
  Note:  These values currently only include a subset of arrays which are explicitly tracked.
  The "true" memory usage will be greater.
------------------------------------------------------------

------------------------------------------------------------
          Begin self-consistency iteration #    2

  Date     :  20200801, Time     :  171419.260
------------------------------------------------------------
  Evaluating new KS density.
  Integration grid: deviation in total charge (<rho> - N_e) =   0.000000E+00
  Pulay mixing of updated and previous charge densities.

  Evaluating partitioned Hartree potential by multipole expansion.
  | Analytical far-field extrapolation by fixed multipoles:
  | Hartree multipole sum: apparent total charge =  -0.270512E-03
  Summing up the Hartree potential.
  Time summed over all CPUs for potential: real work        0.281 s, elapsed        0.281 s
  | RMS charge density error from multipole expansion :   0.142094E-01

  Integrating Hamiltonian matrix: batch-based integration.
  Time summed over all CPUs for integration: real work        0.500 s, elapsed        0.500 s

  Updating Kohn-Sham eigenvalues and eigenvectors using ELSI and the ELPA eigensolver.
  Finished Cholesky decomposition
  | Time :     0.000 s
  Finished transformation to standard eigenproblem
  | Time :     0.000 s
  Starting LAPACK eigensolver
  Finished solving standard eigenproblem
  | Time :     0.001 s
  Finished back-transformation of eigenvectors
  | Time :     0.000 s

  Obtaining occupation numbers and chemical potential using ELSI.
  | Chemical potential (Fermi level):    -3.22367002eV
  Highest occupied state (VBM) at     -6.67411340 eV
  | Occupation number:      2.00000000

  Lowest unoccupied state (CBM) at    -1.69293331 eV
  | Occupation number:      0.00000000

  Overall HOMO-LUMO gap:      4.98118009 eV.

  Checking to see if s.c.f. parameters should be adjusted.

  Total energy components:
  | Sum of eigenvalues            :        -182.30375810 Ha       -4960.73765744 eV
  | XC energy correction          :         -42.49205862 Ha       -1156.26774518 eV
  | XC potential correction       :          54.63514023 Ha        1486.69780806 eV
  | Free-atom electrostatic energy:        -146.76841474 Ha       -3993.77176605 eV
  | Hartree energy correction     :          -6.57219607 Ha        -178.83855434 eV
  | vdW energy correction         :           0.00000000 Ha           0.00000000 eV
  | Entropy correction            :           0.00000000 Ha           0.00000000 eV
  | ---------------------------
  | Total energy                  :        -323.50128730 Ha       -8802.91791495 eV
  | Total energy, T -> 0          :        -323.50128730 Ha       -8802.91791495 eV  <-- do not rely on this value for anything but (periodic) metals
  | Electronic free energy        :        -323.50128730 Ha       -8802.91791495 eV

  Derived energy quantities:
  | Kinetic energy                :         323.61651501 Ha        8806.05342043 eV
  | Electrostatic energy          :        -604.62574369 Ha      -16452.70359020 eV
  | Energy correction for multipole
  | error in Hartree potential    :           0.02659796 Ha           0.72376737 eV
  | Sum of eigenvalues per atom                           :        -381.59520442 eV
  | Total energy (T->0) per atom                          :        -677.14753192 eV  <-- do not rely on this value for anything but (periodic) metals
  | Electronic free energy per atom                       :        -677.14753192 eV

  Self-consistency convergence accuracy:
  | Change of charge density      :  0.3588E+00
  | Change of sum of eigenvalues  :  0.9266E+02 eV
  | Change of total energy        :  0.2015E+01 eV

  End self-consistency iteration #     2       :  max(cpu_time)    wall_clock(cpu1)
  | Time for this iteration                    :        1.193 s           1.194 s
  | Charge density update                      :        0.393 s           0.393 s
  | Density mixing                             :        0.007 s           0.007 s
  | Hartree multipole update                   :        0.009 s           0.009 s
  | Hartree multipole summation                :        0.281 s           0.281 s
  | Integration                                :        0.501 s           0.501 s
  | Solution of K.-S. eqns.                    :        0.002 s           0.002 s
  | Total energy evaluation                    :        0.000 s           0.000 s

  Partial memory accounting:
  | Current value for overall tracked memory usage on task 0  :           0.166 MB
  | Peak value for overall tracked memory usage on task 0     :           0.695 MB after allocating gradient_basis_wave
  | Largest tracked array allocation on task 0 so far         :           0.397 MB  when allocating gradient_basis_wave
  Note:  These values currently only include a subset of arrays which are explicitly tracked.
  The "true" memory usage will be greater.
------------------------------------------------------------

------------------------------------------------------------
          Begin self-consistency iteration #    3

  Date     :  20200801, Time     :  171420.457
------------------------------------------------------------
  Evaluating new KS density.
  Integration grid: deviation in total charge (<rho> - N_e) =  -2.131628E-14
  Pulay mixing of updated and previous charge densities.

  Evaluating partitioned Hartree potential by multipole expansion.
  | Analytical far-field extrapolation by fixed multipoles:
  | Hartree multipole sum: apparent total charge =  -0.358691E-03
  Summing up the Hartree potential.
  Time summed over all CPUs for potential: real work        0.283 s, elapsed        0.283 s
  | RMS charge density error from multipole expansion :   0.224549E-01

  Integrating Hamiltonian matrix: batch-based integration.
  Time summed over all CPUs for integration: real work        0.504 s, elapsed        0.504 s

  Updating Kohn-Sham eigenvalues and eigenvectors using ELSI and the ELPA eigensolver.
  Finished Cholesky decomposition
  | Time :     0.000 s
  Finished transformation to standard eigenproblem
  | Time :     0.000 s
  Starting LAPACK eigensolver
  Finished solving standard eigenproblem
  | Time :     0.002 s
  Finished back-transformation of eigenvectors
  | Time :     0.000 s

  Obtaining occupation numbers and chemical potential using ELSI.
  | Chemical potential (Fermi level):    -2.63473690eV
  Highest occupied state (VBM) at     -6.04672751 eV
  | Occupation number:      2.00000000

  Lowest unoccupied state (CBM) at    -0.93424728 eV
  | Occupation number:      0.00000000

  Overall HOMO-LUMO gap:      5.11248022 eV.

  Total energy components:
  | Sum of eigenvalues            :        -180.94786711 Ha       -4923.84198626 eV
  | XC energy correction          :         -42.64973752 Ha       -1160.55840656 eV
  | XC potential correction       :          54.83613349 Ha        1492.16711298 eV
  | Free-atom electrostatic energy:        -146.76841474 Ha       -3993.77176605 eV
  | Hartree energy correction     :          -7.95947337 Ha        -216.58829019 eV
  | vdW energy correction         :           0.00000000 Ha           0.00000000 eV
  | Entropy correction            :           0.00000000 Ha           0.00000000 eV
  | ---------------------------
  | Total energy                  :        -323.48935925 Ha       -8802.59333608 eV
  | Total energy, T -> 0          :        -323.48935925 Ha       -8802.59333608 eV  <-- do not rely on this value for anything but (periodic) metals
  | Electronic free energy        :        -323.48935925 Ha       -8802.59333608 eV

  Derived energy quantities:
  | Kinetic energy                :         323.28531716 Ha        8797.04106836 eV
  | Electrostatic energy          :        -604.12493888 Ha      -16439.07599788 eV
  | Energy correction for multipole
  | error in Hartree potential    :           0.03778166 Ha           1.02809115 eV
  | Sum of eigenvalues per atom                           :        -378.75707587 eV
  | Total energy (T->0) per atom                          :        -677.12256431 eV  <-- do not rely on this value for anything but (periodic) metals
  | Electronic free energy per atom                       :        -677.12256431 eV

  Self-consistency convergence accuracy:
  | Change of charge density      :  0.2006E+00
  | Change of sum of eigenvalues  :  0.3690E+02 eV
  | Change of total energy        :  0.3246E+00 eV

  End self-consistency iteration #     3       :  max(cpu_time)    wall_clock(cpu1)
  | Time for this iteration                    :        1.200 s           1.201 s
  | Charge density update                      :        0.393 s           0.394 s
  | Density mixing                             :        0.009 s           0.008 s
  | Hartree multipole update                   :        0.009 s           0.010 s
  | Hartree multipole summation                :        0.283 s           0.283 s
  | Integration                                :        0.504 s           0.504 s
  | Solution of K.-S. eqns.                    :        0.002 s           0.002 s
  | Total energy evaluation                    :        0.000 s           0.000 s

  Partial memory accounting:
  | Current value for overall tracked memory usage on task 0  :           0.166 MB
  | Peak value for overall tracked memory usage on task 0     :           0.695 MB after allocating gradient_basis_wave
  | Largest tracked array allocation on task 0 so far         :           0.397 MB  when allocating gradient_basis_wave
  Note:  These values currently only include a subset of arrays which are explicitly tracked.
  The "true" memory usage will be greater.
------------------------------------------------------------

------------------------------------------------------------
          Begin self-consistency iteration #    4

  Date     :  20200801, Time     :  171421.661
------------------------------------------------------------
  Evaluating new KS density.
  Integration grid: deviation in total charge (<rho> - N_e) =  -1.421085E-14
  Pulay mixing of updated and previous charge densities.

  Evaluating partitioned Hartree potential by multipole expansion.
  | Analytical far-field extrapolation by fixed multipoles:
  | Hartree multipole sum: apparent total charge =  -0.385594E-03
  Summing up the Hartree potential.
  Time summed over all CPUs for potential: real work        0.283 s, elapsed        0.283 s
  | RMS charge density error from multipole expansion :   0.260253E-01

  Integrating Hamiltonian matrix: batch-based integration.
  Time summed over all CPUs for integration: real work        0.505 s, elapsed        0.505 s

  Updating Kohn-Sham eigenvalues and eigenvectors using ELSI and the ELPA eigensolver.
  Finished Cholesky decomposition
  | Time :     0.000 s
  Finished transformation to standard eigenproblem
  | Time :     0.000 s
  Starting LAPACK eigensolver
  Finished solving standard eigenproblem
  | Time :     0.002 s
  Finished back-transformation of eigenvectors
  | Time :     0.000 s

  Obtaining occupation numbers and chemical potential using ELSI.
  | Chemical potential (Fermi level):    -2.56848516eV
  Highest occupied state (VBM) at     -5.78583202 eV
  | Occupation number:      2.00000000

  Lowest unoccupied state (CBM) at    -0.87601942 eV
  | Occupation number:      0.00000000

  Overall HOMO-LUMO gap:      4.90981260 eV.

  Total energy components:
  | Sum of eigenvalues            :        -180.89315536 Ha       -4922.35320400 eV
  | XC energy correction          :         -42.68186516 Ha       -1161.43264395 eV
  | XC potential correction       :          54.87606502 Ha        1493.25370505 eV
  | Free-atom electrostatic energy:        -146.76841474 Ha       -3993.77176605 eV
  | Hartree energy correction     :          -8.02099740 Ha        -218.26244445 eV
  | vdW energy correction         :           0.00000000 Ha           0.00000000 eV
  | Entropy correction            :           0.00000000 Ha           0.00000000 eV
  | ---------------------------
  | Total energy                  :        -323.48836765 Ha       -8802.56635340 eV
  | Total energy, T -> 0          :        -323.48836765 Ha       -8802.56635340 eV  <-- do not rely on this value for anything but (periodic) metals
  | Electronic free energy        :        -323.48836765 Ha       -8802.56635340 eV

  Derived energy quantities:
  | Kinetic energy                :         322.86243984 Ha        8785.53399121 eV
  | Electrostatic energy          :        -603.66894234 Ha      -16426.66770065 eV
  | Energy correction for multipole
  | error in Hartree potential    :           0.04194497 Ha           1.14138059 eV
  | Sum of eigenvalues per atom                           :        -378.64255415 eV
  | Total energy (T->0) per atom                          :        -677.12048872 eV  <-- do not rely on this value for anything but (periodic) metals
  | Electronic free energy per atom                       :        -677.12048872 eV

  Self-consistency convergence accuracy:
  | Change of charge density      :  0.6665E-01
  | Change of sum of eigenvalues  :  0.1489E+01 eV
  | Change of total energy        :  0.2698E-01 eV

  End self-consistency iteration #     4       :  max(cpu_time)    wall_clock(cpu1)
  | Time for this iteration                    :        1.203 s           1.204 s
  | Charge density update                      :        0.393 s           0.393 s
  | Density mixing                             :        0.010 s           0.011 s
  | Hartree multipole update                   :        0.009 s           0.009 s
  | Hartree multipole summation                :        0.283 s           0.284 s
  | Integration                                :        0.505 s           0.505 s
  | Solution of K.-S. eqns.                    :        0.002 s           0.002 s
  | Total energy evaluation                    :        0.000 s           0.000 s

  Partial memory accounting:
  | Current value for overall tracked memory usage on task 0  :           0.166 MB
  | Peak value for overall tracked memory usage on task 0     :           0.696 MB after allocating gradient_basis_wave
  | Largest tracked array allocation on task 0 so far         :           0.397 MB  when allocating gradient_basis_wave
  Note:  These values currently only include a subset of arrays which are explicitly tracked.
  The "true" memory usage will be greater.
------------------------------------------------------------

------------------------------------------------------------
          Begin self-consistency iteration #    5

  Date     :  20200801, Time     :  171422.867
------------------------------------------------------------
  Evaluating new KS density.
  Integration grid: deviation in total charge (<rho> - N_e) =   5.684342E-14
  Pulay mixing of updated and previous charge densities.

  Evaluating partitioned Hartree potential by multipole expansion.
  | Analytical far-field extrapolation by fixed multipoles:
  | Hartree multipole sum: apparent total charge =  -0.381212E-03
  Summing up the Hartree potential.
  Time summed over all CPUs for potential: real work        0.282 s, elapsed        0.282 s
  | RMS charge density error from multipole expansion :   0.257664E-01

  Integrating Hamiltonian matrix: batch-based integration.
  Time summed over all CPUs for integration: real work        0.504 s, elapsed        0.504 s

  Updating Kohn-Sham eigenvalues and eigenvectors using ELSI and the ELPA eigensolver.
  Finished Cholesky decomposition
  | Time :     0.000 s
  Finished transformation to standard eigenproblem
  | Time :     0.000 s
  Starting LAPACK eigensolver
  Finished solving standard eigenproblem
  | Time :     0.002 s
  Finished back-transformation of eigenvectors
  | Time :     0.000 s

  Obtaining occupation numbers and chemical potential using ELSI.
  | Chemical potential (Fermi level):    -2.59979953eV
  Highest occupied state (VBM) at     -5.90072704 eV
  | Occupation number:      2.00000000

  Lowest unoccupied state (CBM) at    -0.93331260 eV
  | Occupation number:      0.00000000

  Overall HOMO-LUMO gap:      4.96741445 eV.

  Total energy components:
  | Sum of eigenvalues            :        -181.01051471 Ha       -4925.54671420 eV
  | XC energy correction          :         -42.66550141 Ha       -1160.98736373 eV
  | XC potential correction       :          54.85488379 Ha        1492.67733445 eV
  | Free-atom electrostatic energy:        -146.76841474 Ha       -3993.77176605 eV
  | Hartree energy correction     :          -7.89850029 Ha        -214.92912845 eV
  | vdW energy correction         :           0.00000000 Ha           0.00000000 eV
  | Entropy correction            :           0.00000000 Ha           0.00000000 eV
  | ---------------------------
  | Total energy                  :        -323.48804736 Ha       -8802.55763797 eV
  | Total energy, T -> 0          :        -323.48804736 Ha       -8802.55763797 eV  <-- do not rely on this value for anything but (periodic) metals
  | Electronic free energy        :        -323.48804736 Ha       -8802.55763797 eV

  Derived energy quantities:
  | Kinetic energy                :         322.80069178 Ha        8783.85374099 eV
  | Electrostatic energy          :        -603.62323774 Ha      -16425.42401522 eV
  | Energy correction for multipole
  | error in Hartree potential    :           0.04138820 Ha           1.12623009 eV
  | Sum of eigenvalues per atom                           :        -378.88820878 eV
  | Total energy (T->0) per atom                          :        -677.11981831 eV  <-- do not rely on this value for anything but (periodic) metals
  | Electronic free energy per atom                       :        -677.11981831 eV

  Self-consistency convergence accuracy:
  | Change of charge density      :  0.2393E-01
  | Change of sum of eigenvalues  : -0.3194E+01 eV
  | Change of total energy        :  0.8715E-02 eV

  End self-consistency iteration #     5       :  max(cpu_time)    wall_clock(cpu1)
  | Time for this iteration                    :        1.204 s           1.205 s
  | Charge density update                      :        0.394 s           0.395 s
  | Density mixing                             :        0.012 s           0.012 s
  | Hartree multipole update                   :        0.009 s           0.009 s
  | Hartree multipole summation                :        0.283 s           0.283 s
  | Integration                                :        0.504 s           0.503 s
  | Solution of K.-S. eqns.                    :        0.002 s           0.003 s
  | Total energy evaluation                    :        0.000 s           0.000 s

  Partial memory accounting:
  | Current value for overall tracked memory usage on task 0  :           0.166 MB
  | Peak value for overall tracked memory usage on task 0     :           0.696 MB after allocating gradient_basis_wave
  | Largest tracked array allocation on task 0 so far         :           0.397 MB  when allocating gradient_basis_wave
  Note:  These values currently only include a subset of arrays which are explicitly tracked.
  The "true" memory usage will be greater.
------------------------------------------------------------

------------------------------------------------------------
          Begin self-consistency iteration #    6

  Date     :  20200801, Time     :  171424.074
------------------------------------------------------------
  Evaluating new KS density.
  Integration grid: deviation in total charge (<rho> - N_e) =  -5.684342E-14
  Pulay mixing of updated and previous charge densities.

  Evaluating partitioned Hartree potential by multipole expansion.
  | Analytical far-field extrapolation by fixed multipoles:
  | Hartree multipole sum: apparent total charge =  -0.381707E-03
  Summing up the Hartree potential.
  Time summed over all CPUs for potential: real work        0.283 s, elapsed        0.283 s
  | RMS charge density error from multipole expansion :   0.260543E-01

  Integrating Hamiltonian matrix: batch-based integration.
  Time summed over all CPUs for integration: real work        0.515 s, elapsed        0.515 s

  Updating Kohn-Sham eigenvalues and eigenvectors using ELSI and the ELPA eigensolver.
  Finished Cholesky decomposition
  | Time :     0.000 s
  Finished transformation to standard eigenproblem
  | Time :     0.000 s
  Starting LAPACK eigensolver
  Finished solving standard eigenproblem
  | Time :     0.002 s
  Finished back-transformation of eigenvectors
  | Time :     0.000 s

  Obtaining occupation numbers and chemical potential using ELSI.
  | Chemical potential (Fermi level):    -2.61438428eV
  Highest occupied state (VBM) at     -5.93296946 eV
  | Occupation number:      2.00000000

  Lowest unoccupied state (CBM) at    -0.98043466 eV
  | Occupation number:      0.00000000

  Overall HOMO-LUMO gap:      4.95253480 eV.

  Total energy components:
  | Sum of eigenvalues            :        -181.07870461 Ha       -4927.40225598 eV
  | XC energy correction          :         -42.65694912 Ha       -1160.75464419 eV
  | XC potential correction       :          54.84376029 Ha        1492.37464864 eV
  | Free-atom electrostatic energy:        -146.76841474 Ha       -3993.77176605 eV
  | Hartree energy correction     :          -7.82765935 Ha        -213.00144841 eV
  | vdW energy correction         :           0.00000000 Ha           0.00000000 eV
  | Entropy correction            :           0.00000000 Ha           0.00000000 eV
  | ---------------------------
  | Total energy                  :        -323.48796754 Ha       -8802.55546598 eV
  | Total energy, T -> 0          :        -323.48796754 Ha       -8802.55546598 eV  <-- do not rely on this value for anything but (periodic) metals
  | Electronic free energy        :        -323.48796754 Ha       -8802.55546598 eV

  Derived energy quantities:
  | Kinetic energy                :         322.69931030 Ha        8781.09501050 eV
  | Electrostatic energy          :        -603.53032872 Ha      -16422.89583229 eV
  | Energy correction for multipole
  | error in Hartree potential    :           0.04143831 Ha           1.12759379 eV
  | Sum of eigenvalues per atom                           :        -379.03094277 eV
  | Total energy (T->0) per atom                          :        -677.11965123 eV  <-- do not rely on this value for anything but (periodic) metals
  | Electronic free energy per atom                       :        -677.11965123 eV

  Self-consistency convergence accuracy:
  | Change of charge density      :  0.1100E-01
  | Change of sum of eigenvalues  : -0.1856E+01 eV
  | Change of total energy        :  0.2172E-02 eV

  End self-consistency iteration #     6       :  max(cpu_time)    wall_clock(cpu1)
  | Time for this iteration                    :        1.208 s           1.216 s
  | Charge density update                      :        0.393 s           0.394 s
  | Density mixing                             :        0.013 s           0.012 s
  | Hartree multipole update                   :        0.009 s           0.009 s
  | Hartree multipole summation                :        0.283 s           0.283 s
  | Integration                                :        0.507 s           0.515 s
  | Solution of K.-S. eqns.                    :        0.002 s           0.002 s
  | Total energy evaluation                    :        0.000 s           0.000 s

  Partial memory accounting:
  | Current value for overall tracked memory usage on task 0  :           0.166 MB
  | Peak value for overall tracked memory usage on task 0     :           0.696 MB after allocating gradient_basis_wave
  | Largest tracked array allocation on task 0 so far         :           0.397 MB  when allocating gradient_basis_wave
  Note:  These values currently only include a subset of arrays which are explicitly tracked.
  The "true" memory usage will be greater.
------------------------------------------------------------

------------------------------------------------------------
          Begin self-consistency iteration #    7

  Date     :  20200801, Time     :  171425.293
------------------------------------------------------------
  Evaluating new KS density.
  Integration grid: deviation in total charge (<rho> - N_e) =   1.421085E-14
  Pulay mixing of updated and previous charge densities.

  Evaluating partitioned Hartree potential by multipole expansion.
  | Analytical far-field extrapolation by fixed multipoles:
  | Hartree multipole sum: apparent total charge =  -0.382765E-03
  Summing up the Hartree potential.
  Time summed over all CPUs for potential: real work        0.285 s, elapsed        0.285 s
  | RMS charge density error from multipole expansion :   0.262158E-01

  Integrating Hamiltonian matrix: batch-based integration.
  Time summed over all CPUs for integration: real work        0.505 s, elapsed        0.505 s

  Updating Kohn-Sham eigenvalues and eigenvectors using ELSI and the ELPA eigensolver.
  Finished Cholesky decomposition
  | Time :     0.000 s
  Finished transformation to standard eigenproblem
  | Time :     0.000 s
  Starting LAPACK eigensolver
  Finished solving standard eigenproblem
  | Time :     0.001 s
  Finished back-transformation of eigenvectors
  | Time :     0.000 s

[...]
  |   Hirshfeld dipole moment :      0.06226911
  |   Hirshfeld second moments:     -0.00082006      -0.02511912      -0.01553908
  |                                 -0.02511912      -0.02623545       0.00752129
  |                                 -0.01553908       0.00752129      -0.02088348
  ----------------------------------------------------------------------
  | Atom    12: O
  |   Hirshfeld charge        :     -0.14321750
  |   Free atom volume        :     23.61338643
  |   Hirshfeld volume        :     21.09569599
  |   Hirshfeld dipole vector :      0.01582950       0.03776526      -0.00806378
  |   Hirshfeld dipole moment :      0.04173503
  |   Hirshfeld second moments:      0.06085896      -0.01291634       0.01425359
  |                                 -0.01291634       0.02824275       0.00621367
  |                                  0.01425359       0.00621367       0.07399230
  ----------------------------------------------------------------------
  | Atom    13: H
  |   Hirshfeld charge        :      0.12041599
  |   Free atom volume        :      9.95071624
  |   Hirshfeld volume        :      6.85857549
  |   Hirshfeld dipole vector :     -0.03895162       0.01283677      -0.06438208
  |   Hirshfeld dipole moment :      0.07633520
  |   Hirshfeld second moments:      0.10889552      -0.01287029       0.00779883
  |                                 -0.01287029       0.06877311       0.02973326
  |                                  0.00779883       0.02973326       0.09044322
  ----------------------------------------------------------------------


  Total energy components:
  | Sum of eigenvalues            :        -181.06882866 Ha       -4927.13351753 eV
  | XC energy correction          :         -42.65526184 Ha       -1160.70873079 eV
  | XC potential correction       :          54.84163657 Ha        1492.31685923 eV
  | Free-atom electrostatic energy:        -146.76841474 Ha       -3993.77176605 eV
  | Hartree energy correction     :          -7.83708136 Ha        -213.25783433 eV
  | vdW energy correction         :          -0.00326774 Ha          -0.08891967 eV
  | Entropy correction            :           0.00000000 Ha           0.00000000 eV
  | ---------------------------
  | Total energy                  :        -323.49121777 Ha       -8802.64390913 eV
  | Total energy, T -> 0          :        -323.49121777 Ha       -8802.64390913 eV  <-- do not rely on this value for anything but (periodic) metals
  | Electronic free energy        :        -323.49121777 Ha       -8802.64390913 eV

  Derived energy quantities:
  | Kinetic energy                :         322.66307993 Ha        8780.10913197 eV
  | Electrostatic energy          :        -603.49576813 Ha      -16421.95539065 eV
  | Energy correction for multipole
  | error in Hartree potential    :           0.04151112 Ha           1.12957493 eV
  | Sum of eigenvalues per atom                           :        -379.01027058 eV
  | Total energy (T->0) per atom                          :        -677.12645455 eV  <-- do not rely on this value for anything but (periodic) metals
  | Electronic free energy per atom                       :        -677.12645455 eV

  atomic forces [eV/Ang]:
  -----------------------
  atom #    1
   Hellmann-Feynman              :  0.546420E+00 -0.319821E+00  0.160643E+01
   Ionic forces                  :  0.000000E+00  0.000000E+00  0.000000E+00
   Multipole                     : -0.562314E-01  0.303118E+00 -0.196965E+00
   Pulay + GGA                   : -0.838382E+00  0.305843E+00 -0.163711E+01
   Van der Waals                 :  0.235605E-02  0.106770E-02 -0.126996E-02
   ----------------------------------------------------------------
   Total forces(   1)            : -0.345837E+00  0.290208E+00 -0.228919E+00
  atom #    2
   Hellmann-Feynman              :  0.309510E+00 -0.381721E-01 -0.791329E-03
   Ionic forces                  :  0.000000E+00  0.000000E+00  0.000000E+00
   Multipole                     :  0.176192E+00  0.384240E-01 -0.302850E-01
   Pulay + GGA                   : -0.162777E+00  0.288706E-01  0.112442E-02
   Van der Waals                 :  0.469355E-02 -0.287160E-02 -0.637479E-02
   ----------------------------------------------------------------
   Total forces(   2)            :  0.327619E+00  0.262509E-01 -0.363267E-01
  atom #    3
   Hellmann-Feynman              :  0.817805E+01  0.454825E+01 -0.513098E+01
   Ionic forces                  :  0.000000E+00  0.000000E+00  0.000000E+00
   Multipole                     : -0.138214E+00  0.207937E+00 -0.918918E+00
   Pulay + GGA                   : -0.760174E+01 -0.452012E+01  0.668722E+01
   Van der Waals                 :  0.362572E-02 -0.530720E-02 -0.855656E-02
   ----------------------------------------------------------------
   Total forces(   3)            :  0.441730E+00  0.230760E+00  0.628760E+00
  atom #    4
   Hellmann-Feynman              :  0.204888E+00  0.171305E+00 -0.908950E+00
   Ionic forces                  :  0.000000E+00  0.000000E+00  0.000000E+00
   Multipole                     : -0.172185E-01 -0.454663E-01 -0.134260E+00
   Pulay + GGA                   :  0.181911E+00  0.276211E+00 -0.643768E-01
   Van der Waals                 : -0.274636E-02  0.333880E-02  0.731880E-03
   ----------------------------------------------------------------
   Total forces(   4)            :  0.366835E+00  0.405389E+00 -0.110685E+01
  atom #    5
   Hellmann-Feynman              : -0.396009E+00 -0.522802E-01 -0.104718E+00
   Ionic forces                  :  0.000000E+00  0.000000E+00  0.000000E+00
   Multipole                     : -0.944584E-01  0.175660E-01 -0.522280E-01
   Pulay + GGA                   :  0.230407E+00 -0.321671E-01 -0.471671E-01
   Van der Waals                 : -0.135574E-02 -0.207516E-02 -0.843804E-02
   ----------------------------------------------------------------
   Total forces(   5)            : -0.261416E+00 -0.689565E-01 -0.212551E+00
  atom #    6
   Hellmann-Feynman              :  0.516797E-01 -0.257968E+00  0.706754E-01
   Ionic forces                  :  0.000000E+00  0.000000E+00  0.000000E+00
   Multipole                     : -0.133413E+00  0.592587E+00  0.279210E+00
   Pulay + GGA                   :  0.326158E+00 -0.726679E+00 -0.421339E+00
   Van der Waals                 : -0.299334E-02  0.273315E-02 -0.458475E-02
   ----------------------------------------------------------------
   Total forces(   6)            :  0.241431E+00 -0.389326E+00 -0.760388E-01
  atom #    7
   Hellmann-Feynman              : -0.254467E+00 -0.644519E-01 -0.325677E-01
   Ionic forces                  :  0.000000E+00  0.000000E+00  0.000000E+00
   Multipole                     : -0.118803E+00  0.490676E-01  0.323231E-01
   Pulay + GGA                   :  0.106640E+00  0.157141E-01  0.477794E-01
   Van der Waals                 : -0.233531E-02  0.152489E-02  0.692361E-02
   ----------------------------------------------------------------
   Total forces(   7)            : -0.268965E+00  0.185473E-02  0.544584E-01
  atom #    8
   Hellmann-Feynman              :  0.725865E-01 -0.683101E-01  0.109802E+00
   Ionic forces                  :  0.000000E+00  0.000000E+00  0.000000E+00
   Multipole                     :  0.112638E-01  0.663334E-01  0.128468E+00
   Pulay + GGA                   : -0.510094E-01 -0.484135E-01 -0.116491E+00
   Van der Waals                 : -0.318419E-02  0.111590E-01  0.765297E-03
   ----------------------------------------------------------------
   Total forces(   8)            :  0.296566E-01 -0.392312E-01  0.122544E+00
  atom #    9
   Hellmann-Feynman              :  0.106016E+00  0.669581E-01 -0.165787E+00
   Ionic forces                  :  0.000000E+00  0.000000E+00  0.000000E+00
   Multipole                     :  0.193454E-01  0.129608E+00 -0.968985E-02
   Pulay + GGA                   : -0.312360E-01 -0.898886E-01  0.474450E-01
   Van der Waals                 : -0.502503E-03  0.633215E-02  0.721706E-02
   ----------------------------------------------------------------
   Total forces(   9)            :  0.936232E-01  0.113010E+00 -0.120815E+00
  atom #   10
   Hellmann-Feynman              :  0.223147E+01  0.376327E+01  0.223600E+01
   Ionic forces                  :  0.000000E+00  0.000000E+00  0.000000E+00
   Multipole                     :  0.627175E-01 -0.396690E-01  0.182212E+00
   Pulay + GGA                   : -0.124015E+01 -0.277978E+01 -0.294906E+00
   Van der Waals                 :  0.435264E-02 -0.155838E-01  0.480697E-02
   ----------------------------------------------------------------
   Total forces(  10)            :  0.105839E+01  0.928235E+00  0.212811E+01
  atom #   11
   Hellmann-Feynman              :  0.415838E+01 -0.239196E+01  0.142579E+02
   Ionic forces                  :  0.000000E+00  0.000000E+00  0.000000E+00
   Multipole                     :  0.887439E-01 -0.536651E+00  0.100034E+01
   Pulay + GGA                   : -0.338981E+01  0.347866E+01 -0.142164E+02
   Van der Waals                 : -0.141991E-02 -0.120078E-01  0.586075E-02
   ----------------------------------------------------------------
   Total forces(  11)            :  0.855888E+00  0.538045E+00  0.104763E+01
  atom #   12
   Hellmann-Feynman              : -0.516982E+01 -0.133908E+02  0.112082E+01
   Ionic forces                  :  0.000000E+00  0.000000E+00  0.000000E+00
   Multipole                     : -0.116474E+01 -0.157129E+01 -0.366232E-01
   Pulay + GGA                   :  0.486568E+01  0.134404E+02 -0.254065E+01
   Van der Waals                 : -0.287143E-03  0.719661E-02  0.396379E-02
   ----------------------------------------------------------------
   Total forces(  12)            : -0.146916E+01 -0.151455E+01 -0.145248E+01
  atom #   13
   Hellmann-Feynman              : -0.110019E+01 -0.383837E+00 -0.110016E+01
   Ionic forces                  :  0.000000E+00  0.000000E+00  0.000000E+00
   Multipole                     : -0.497390E-01  0.955331E-01 -0.515909E-01
   Pulay + GGA                   :  0.779236E-01 -0.236872E+00  0.398683E+00
   Van der Waals                 : -0.203461E-03  0.449331E-02 -0.104526E-02
   ----------------------------------------------------------------
   Total forces(  13)            : -0.107221E+01 -0.520683E+00 -0.754116E+00

  Timings for VdW correction (Tkatchenko-Scheffler 2009 or later):
  | CPU time:        0.095 s, Wall clock time:        0.096 s.
  Removing unitary transformations (pure translations, rotations) from forces on atoms.
  Atomic forces before filtering:
  | Net force on center of mass :  -0.242130E-02  0.100128E-02 -0.659502E-02 eV/A
  | Net torque on center of mass:   0.318496E-02  0.102187E-02  0.688535E-03 eV
  Atomic forces after filtering:
  | Net force on center of mass :  -0.178406E-15 -0.892031E-16  0.981234E-15 eV/A
  | Net torque on center of mass:   0.000000E+00  0.283225E-15  0.377634E-15 eV

  Energy and forces in a compact form:
  | Total energy uncorrected      :         -0.880264390913433E+04 eV
  | Total energy corrected        :         -0.880264390913433E+04 eV  <-- do not rely on this value for anything but (periodic) metals
  | Electronic free energy        :         -0.880264390913433E+04 eV
  Total atomic forces (unitary forces cleaned) [eV/Ang]:
  |   1         -0.345644176786376E+00          0.290105168850910E+00         -0.228389973530635E+00
  |   2          0.327811628956895E+00          0.261061855544008E-01         -0.357357064159834E-01
  |   3          0.442003247955123E+00          0.230549586241368E+00          0.629262211773372E+00
  |   4          0.367086259770515E+00          0.405160518248703E+00         -0.110627709853354E+01
  |   5         -0.261118560162738E+00         -0.691387672773965E-01         -0.212146655462181E+00
  |   6          0.241631463767945E+00         -0.389344892888312E+00         -0.756502393508114E-01
  |   7         -0.268764813928589E+00          0.187975398134621E-02          0.547827603157963E-01
  |   8          0.297992554122433E-01         -0.391715194981700E-01          0.122951676259061E+00
  |   9          0.938867394170441E-01          0.112932466342857E+00         -0.120486169289783E+00
  |  10          0.105848927130017E+01          0.928214222785185E+00          0.212873442634911E+01
  |  11          0.855913999906237E+00          0.538114883983784E+00          0.104829680913964E+01
  |  12         -0.146905486380805E+01         -0.151460788643324E+01         -0.145182456781713E+01
  |  13         -0.107203945180042E+01         -0.520799719891434E+00         -0.753517473436910E+00

  ------------------------------------ 
  Start decomposition of the XC Energy 
  ------------------------------------ 
  X and C from original XC functional choice 
  Hartree-Fock Energy :          0.000000000 Ha              0.000000000 eV
  X Energy            :        -41.050554120 Ha          -1117.042412100 eV
  C Energy            :         -1.604707717 Ha            -43.666318686 eV
  Total XC Energy     :        -42.655261837 Ha          -1160.708730786 eV
  ------------------------------------ 
  LDA X and C from self-consistent density 
  X Energy LDA        :        -37.274299165 Ha          -1014.285286544 eV
  C Energy LDA        :         -3.140093408 Ha            -85.446289079 eV
  ------------------------------------ 
  End decomposition of the XC Energy 
  ------------------------------------ 

------------------------------------------------------------

------------------------------------------------------------------------------
  Final output of selected total energy values:

  The following output summarizes some interesting total energy values
  at the end of a run (AFTER all relaxation, molecular dynamics, etc.).

  | Total energy of the DFT / Hartree-Fock s.c.f. calculation      :          -8802.643909134 eV
  | Final zero-broadening corrected energy (caution - metals only) :          -8802.643909134 eV
  | For reference only, the value of 1 Hartree used in FHI-aims is :             27.211384500 eV

  Before relying on these values, please be sure to understand exactly which
  total energy value is referred to by a given number. Different objects may
  all carry the same name 'total energy'. Definitions:

  Total energy of the DFT / Hartree-Fock s.c.f. calculation:
  | Note that this energy does not include ANY quantities calculated after the
  | s.c.f. cycle, in particular not ANY RPA, MP2, etc. many-body perturbation terms.

  Final zero-broadening corrected energy:
  | For metallic systems only, a broadening of the occupation numbers at the Fermi
  | level can be extrapolated back to zero broadening by an electron-gas inspired
  | formula. For all systems that are not real metals, this value can be
  | meaningless and should be avoided.

------------------------------------------------------------------------------
  Methods described in the following list of references were used in this FHI-aims run.
  If you publish the results, please make sure to cite these reference if they apply.
  FHI-aims is an academic code, and for our developers (often, Ph.D. students
  and postdocs), scientific credit in the community is essential.
  Thank you for helping us!

  For any use of FHI-aims, please cite:

    Volker Blum, Ralf Gehrke, Felix Hanke, Paula Havu, Ville Havu,
    Xinguo Ren, Karsten Reuter, and Matthias Scheffler
    'Ab initio molecular simulations with numeric atom-centered orbitals'
    Computer Physics Communications 180, 2175-2196 (2009)
    http://dx.doi.org/10.1016/j.cpc.2009.06.022


  The scalable eigensolver library ELPA was used in your run.
  ELPA is essential especially for large systems on hundreds or thousands of CPUs.
  For ELPA, please cite:

    Andreas Marek, Volker Blum, Rainer Johanni, Ville Havu, Bruno Lang,
    Thomas Auckenthaler, Alexander Heinecke, Hans-Joachim Bungartz, and Hermann Lederer,
    'The ELPA Library - Scalable Parallel Eigenvalue Solutions
    for Electronic Structure Theory and Computational Science'
    The Journal of Physics: Condensed Matter 26, 213201 (2014).
    http://dx.doi.org/10.1088/0953-8984/26/21/213201


  The ELSI infrastructure was used in your run to solve the Kohn-Sham electronic structure.
  Please check out http://elsi-interchange.org to learn more.
  If scalability is important for your project, please acknowledge ELSI by citing:

    V. W-z. Yu, F. Corsetti, A. Garcia, W. P. Huhn, M. Jacquelin, W. Jia,
    B. Lange, L. Lin, J. Lu, W. Mi, A. Seifitokaldani, A. Vazquez-Mayagoitia,
    C. Yang, H. Yang, and V. Blum
    'ELSI: A unified software interface for Kohn-Sham electronic structure solvers'
    Computer Physics Communications 222, 267-285 (2018).
    http://dx.doi.org/10.1016/j.cpc.2017.09.007


  For the real-space grid partitioning and parallelization used in this calculation, please cite:

    Ville Havu, Volker Blum, Paula Havu, and Matthias Scheffler,
    'Efficient O(N) integration for all-electron electronic structure calculation'
    'using numerically tabulated basis functions'
    Journal of Computational Physics 228, 8367-8379 (2009).
    http://dx.doi.org/10.1016/j.jcp.2009.08.008

  Of course, there are many other important community references, e.g., those cited in the
  above references. Our list is limited to references that describe implementations in the
  FHI-aims code. The reason is purely practical (length of this list) - please credit others as well.

------------------------------------------------------------
          Leaving FHI-aims.
          Date     :  20200801, Time     :  171440.014

          Computational steps:
          | Number of self-consistency cycles          :           16
          | Number of SCF (re)initializations          :            1

          Detailed time accounting                     :  max(cpu_time)    wall_clock(cpu1)
          | Total time                                 :       23.261 s          23.335 s
          | Preparation time                           :        0.157 s           0.158 s
          | Boundary condition initalization           :        0.000 s           0.000 s
          | Grid partitioning                          :        0.115 s           0.115 s
          | Preloading free-atom quantities on grid    :        0.002 s           0.002 s
          | Free-atom superposition energy             :        0.086 s           0.087 s
          | Total time for integrations                :        8.832 s           8.845 s
          | Total time for solution of K.-S. equations :        0.038 s           0.041 s
          | Total time for density & force components  :        7.405 s           7.422 s
          | Total time for mixing                      :        0.232 s           0.234 s
          | Total time for Hartree multipole update    :        0.145 s           0.146 s
          | Total time for Hartree multipole sum       :        5.824 s           5.826 s
          | Total time for total energy evaluation     :        0.003 s           0.003 s
          | Total time for vdW correction              :        0.095 s           0.096 s

          Partial memory accounting:
          | Residual value for overall tracked memory usage across tasks :           0.000 MB (should be 0.000 MB)
          | Peak values for overall tracked memory usage (after allocating hessian_basis_wave):
          |   Minimum:        1.622 MB (on task 1)
          |   Maximum:        1.622 MB (on task 1)
          |   Average:        1.622 MB
          | Largest tracked array allocation (hessian_basis_wave):
          |   Minimum:        0.794 MB (on task 1)
          |   Maximum:        0.794 MB (on task 1)
          |   Average:        0.794 MB
          Note:  These values currently only include a subset of arrays which are explicitly tracked.
          The "true" memory usage will be greater.

          Have a nice day.
------------------------------------------------------------
