  MPI-parallelism will be employed.
------------------------------------------------------------
          Invoking FHI-aims ...
          Version 171221_1
          Compiled on 2019/09/09 at 14:39:39 on host puhti-login2.bullx.

          When using FHI-aims, please cite the following reference:

          Volker Blum, Ralf Gehrke, Felix Hanke, Paula Havu,
          Ville Havu, Xinguo Ren, Karsten Reuter, and Matthias Scheffler,
          'Ab Initio Molecular Simulations with Numeric Atom-Centered Orbitals',
          Computer Physics Communications 180, 2175-2196 (2009)

          For any questions about FHI-aims, please visit the aimsclub website
          with its forums and wiki. Contributions to both the forums and the
          wiki are warmly encouraged - they are for you, and everyone is welcome there.

------------------------------------------------------------



  Date     :  20200805, Time     :  182428.021
  Time zero on CPU 1             :   0.108880000000000E-01  s.
  Internal wall clock time zero  :           365883868.021  s.

  FHI-aims created a unique identifier for this run for later identification
  aims_uuid : 87B91F78-3236-4C1B-A0A8-B309A5EFBDB1

  Using        1 parallel tasks.
  Task        0 on host r13c34.bullx reporting.

  Performing system and environment tests:
  | Environment variable OMP_NUM_THREADS correctly set to 1.
  | Stacksize not measured: no C compiler
  | Checking for scalapack...
  | Testing pdtran()...
  | All pdtran() tests passed.

  Obtaining array dimensions for all initial allocations:
  
  -----------------------------------------------------------------------
  Parsing control.in (first pass over file, find array dimensions only).
  The contents of control.in will be repeated verbatim below
  unless switched off by setting 'verbatim_writeout .false.' .
  in the first line of control.in .
  -----------------------------------------------------------------------
  
  #########################################################################################
  #
  #  Volker Blum, FHI 2009 : Test run input file control.in for simple H2O
  #
  #########################################################################################
  #
  #  Physical model
  #
    xc                 pbe
    vdw_correction_hirshfeld
    spin               none
    relativistic       none
    charge             0.
  #
  #  SCF convergence
  #
    occupation_type    gaussian 0.01
    mixer              pulay
      n_max_pulay        10
      charge_mix_param   0.2
    sc_accuracy_rho    1E-5
    sc_accuracy_eev    1E-3
    sc_accuracy_etot   1E-6
    sc_accuracy_forces 1E-4
    sc_iter_limit      100
  #
  #  Relaxation
  #
  #  relax_geometry   bfgs 1.e-3
  #
  ################################################################################
  #
  #  FHI-aims code project
  #  VB, Fritz-Haber Institut, 2009
  #
  #  Suggested "light" defaults for H atom (to be pasted into control.in file)
  #  Be sure to double-check any results obtained with these settings for post-processing,
  #  e.g., with the "tight" defaults and larger basis sets.
  #
  ################################################################################
    species        H
  #     global species definitions
      nucleus             1
      mass                1.00794
  #
      l_hartree           4
  #
      cut_pot             3.5  1.5  1.0
      basis_dep_cutoff    1e-4
  #
      radial_base         24 5.0
      radial_multiplier   1
      angular_grids       specified
        division   0.2421   50
        division   0.3822  110
        division   0.4799  194
        division   0.5341  302
  #      division   0.5626  434
  #      division   0.5922  590
  #      division   0.6542  770
  #      division   0.6868 1202
  #      outer_grid  770
        outer_grid  302
  ################################################################################
  #
  #  Definition of "minimal" basis
  #
  ################################################################################
  #     valence basis states
      valence      1  s   1.
  #     ion occupancy
      ion_occ      1  s   0.5
  ################################################################################
  #
  #  Suggested additional basis functions. For production calculations,
  #  uncomment them one after another (the most important basis functions are
  #  listed first).
  #
  #  Basis constructed for dimers: 0.5 A, 0.7 A, 1.0 A, 1.5 A, 2.5 A
  #
  ################################################################################
  #  "First tier" - improvements: -1014.90 meV to -62.69 meV
       hydro 2 s 2.1
       hydro 2 p 3.5
  #  "Second tier" - improvements: -12.89 meV to -1.83 meV
  #     hydro 1 s 0.85
  #     hydro 2 p 3.7
  #     hydro 2 s 1.2
  #     hydro 3 d 7
  #  "Third tier" - improvements: -0.25 meV to -0.12 meV
  #     hydro 4 f 11.2
  #     hydro 3 p 4.8
  #     hydro 4 d 9
  #     hydro 3 s 3.2
  ################################################################################
  #
  #  FHI-aims code project
  #  VB, Fritz-Haber Institut, 2009
  #
  #  Suggested "light" defaults for C atom (to be pasted into control.in file)
  #  Be sure to double-check any results obtained with these settings for post-processing,
  #  e.g., with the "tight" defaults and larger basis sets.
  #
  ################################################################################
    species        C
  #     global species definitions
      nucleus             6
      mass                12.0107
  #
      l_hartree           4
  #
      cut_pot             3.5  1.5  1.0
      basis_dep_cutoff    1e-4
  #
      radial_base         34 5.0
      radial_multiplier   1
      angular_grids specified
        division   0.3326   50
        division   0.5710  110
        division   0.7727  194
        division   0.8772  302
  #      division   0.9334  434
  #      division   0.9625  590
  #      division   0.9924  770
  #      division   1.0230  974
  #      division   1.4589 1202
  #     outer_grid  974
       outer_grid 302
  ################################################################################
  #
  #  Definition of "minimal" basis
  #
  ################################################################################
  #     valence basis states
      valence      2  s   2.
      valence      2  p   2.
  #     ion occupancy
      ion_occ      2  s   1.
      ion_occ      2  p   1.
  ################################################################################
  #
  #  Suggested additional basis functions. For production calculations,
  #  uncomment them one after another (the most important basis functions are
  #  listed first).
  #
  #  Constructed for dimers: 1.0 A, 1.25 A, 1.5 A, 2.0 A, 3.0 A
  #
  ################################################################################
  #  "First tier" - improvements: -1214.57 meV to -155.61 meV
       hydro 2 p 1.7
       hydro 3 d 6
       hydro 2 s 4.9
  #  "Second tier" - improvements: -67.75 meV to -5.23 meV
  #     hydro 4 f 9.8
  #     hydro 3 p 5.2
  #     hydro 3 s 4.3
  #     hydro 5 g 14.4
  #     hydro 3 d 6.2
  #  "Third tier" - improvements: -2.43 meV to -0.60 meV
  #     hydro 2 p 5.6
  #     hydro 2 s 1.4
  #     hydro 3 d 4.9
  #     hydro 4 f 11.2
  #  "Fourth tier" - improvements: -0.39 meV to -0.18 meV
  #     hydro 2 p 2.1
  #     hydro 5 g 16.4
  #     hydro 4 d 13.2
  #     hydro 3 s 13.6
  #     hydro 4 f 17.6
  #  Further basis functions - improvements: -0.08 meV and below
  #     hydro 3 s 2
  #     hydro 3 p 6
  #     hydro 4 d 20
  ################################################################################
  #
  #  FHI-aims code project
  #  VB, Fritz-Haber Institut, 2009
  #
  #  Suggested "light" defaults for N atom (to be pasted into control.in file)
  #  Be sure to double-check any results obtained with these settings for post-processing,
  #  e.g., with the "tight" defaults and larger basis sets.
  #
  ################################################################################
    species        N
  #     global species definitions
      nucleus             7
      mass                14.0067
  #
      l_hartree           4
  #
      cut_pot             3.5  1.5  1.0
      basis_dep_cutoff    1e-4
  #
      radial_base         35 5.0
      radial_multiplier   1
      angular_grids       specified
        division   0.2599   50
        division   0.4601  110
        division   0.5885  194
        division   0.6503  302
  #      division   0.6939  434
  #      division   0.7396  590
  #      division   0.7632  770
  #      division   0.8122  974
  #      division   1.1604 1202
  #      outer_grid  974
        outer_grid  302
  ################################################################################
  #
  #  Definition of "minimal" basis
  #
  ################################################################################
  #     valence basis states
      valence      2  s   2.
      valence      2  p   3.
  #     ion occupancy
      ion_occ      2  s   1.
      ion_occ      2  p   2.
  ################################################################################
  #
  #  Suggested additional basis functions. For production calculations,
  #  uncomment them one after another (the most important basis functions are
  #  listed first).
  #
  #  Constructed for dimers: 1.0 A, 1.1 A, 1.5 A, 2.0 A, 3.0 A
  #
  ################################################################################
  #  "First tier" - improvements: -1193.42 meV to -220.60 meV
       hydro 2 p 1.8
       hydro 3 d 6.8
       hydro 3 s 5.8
  #  "Second tier" - improvements: -80.21 meV to -6.86 meV
  #     hydro 4 f 10.8
  #     hydro 3 p 5.8
  #     hydro 1 s 0.8
  #     hydro 5 g 16
  #     hydro 3 d 4.9
  #  "Third tier" - improvements: -4.29 meV to -0.53 meV
  #     hydro 3 s 16
  #     ionic 2 p auto
  #     hydro 3 d 6.6
  #     hydro 4 f 11.6
  #  "Fourth tier" - improvements: -0.75 meV to -0.25 meV
  #     hydro 2 p 4.5
  #     hydro 2 s 2.4
  #     hydro 5 g 14.4
  #     hydro 4 d 14.4
  #     hydro 4 f 16.8
  # Further basis functions - -0.21 meV and below
  #     hydro 3 p 14.8
  #     hydro 3 s 4.4
  #     hydro 3 d 19.6
  #     hydro 5 g 12.8
  ################################################################################
  #
  #  FHI-aims code project
  #  VB, Fritz-Haber Institut, 2009
  #
  #  Suggested "light" defaults for O atom (to be pasted into control.in file)
  #  Be sure to double-check any results obtained with these settings for post-processing,
  #  e.g., with the "tight" defaults and larger basis sets.
  #
  ################################################################################
    species        O
  #     global species definitions
      nucleus             8
      mass                15.9994
  #
      l_hartree           4
  #
      cut_pot             3.5  1.5  1.0
      basis_dep_cutoff    1e-4
  #
      radial_base         36 5.0
      radial_multiplier   1
       angular_grids specified
        division   0.2659   50
        division   0.4451  110
        division   0.6052  194
        division   0.7543  302
  #      division   0.8014  434
  #      division   0.8507  590
  #      division   0.8762  770
  #      division   0.9023  974
  #      division   1.2339 1202
  #      outer_grid 974
        outer_grid 302
  ################################################################################
  #
  #  Definition of "minimal" basis
  #
  ################################################################################
  #     valence basis states
      valence      2  s   2.
      valence      2  p   4.
  #     ion occupancy
      ion_occ      2  s   1.
      ion_occ      2  p   3.
  ################################################################################
  #
  #  Suggested additional basis functions. For production calculations,
  #  uncomment them one after another (the most important basis functions are
  #  listed first).
  #
  #  Constructed for dimers: 1.0 A, 1.208 A, 1.5 A, 2.0 A, 3.0 A
  #
  ################################################################################
  #  "First tier" - improvements: -699.05 meV to -159.38 meV
       hydro 2 p 1.8
       hydro 3 d 7.6
       hydro 3 s 6.4
  #  "Second tier" - improvements: -49.91 meV to -5.39 meV
  #     hydro 4 f 11.6
  #     hydro 3 p 6.2
  #     hydro 3 d 5.6
  #     hydro 5 g 17.6
  #     hydro 1 s 0.75
  #  "Third tier" - improvements: -2.83 meV to -0.50 meV
  #     ionic 2 p auto
  #     hydro 4 f 10.8
  #     hydro 4 d 4.7
  #     hydro 2 s 6.8
  #  "Fourth tier" - improvements: -0.40 meV to -0.12 meV
  #     hydro 3 p 5
  #     hydro 3 s 3.3
  #     hydro 5 g 15.6
  #     hydro 4 f 17.6
  #     hydro 4 d 14
  # Further basis functions - -0.08 meV and below
  #     hydro 3 s 2.1
  #     hydro 4 d 11.6
  #     hydro 3 p 16
  #     hydro 2 s 17.2
  
  -----------------------------------------------------------------------
  Completed first pass over input file control.in .
  -----------------------------------------------------------------------
  
  
  -----------------------------------------------------------------------
  Parsing geometry.in (first pass over file, find array dimensions only).
  The contents of geometry.in will be repeated verbatim below
  unless switched off by setting 'verbatim_writeout .false.' .
  in the first line of geometry.in .
  -----------------------------------------------------------------------
  
  atom  0.00000 0.00000 0.00000 C
  atom  1.09300 0.00000 0.00000 H
  atom  -0.47961 0.00000 -1.41207 N
  atom  -1.06774 -0.82140 -1.55775 H
  atom  -1.01553 0.84987 -1.57524 H
  atom  -0.49584 1.26211 0.72868 C
  atom  -1.58789 1.28919 0.74431 H
  atom  -0.13407 1.27425 1.75947 H
  atom  -0.13407 2.16087 0.22380 H
  atom  -0.39425 -1.28861 0.74398 C
  atom  -0.10189 -1.56493 1.88303 O
  atom  -1.10210 -2.13717 0.06896 O
  atom  -0.65517 -2.04375 -0.78924 H
  
  -----------------------------------------------------------------------
  Completed first pass over input file geometry.in .
  -----------------------------------------------------------------------
  

  Basic array size parameters:
  | Number of species                 :        4
  | Number of atoms                   :       13
  | Max. basis fn. angular momentum   :        2
  | Max. atomic/ionic basis occupied n:        2
  | Max. number of basis fn. types    :        2
  | Max. radial fns per species/type  :        3
  | Max. logarithmic grid size        :     1301
  | Max. radial integration grid size :       36
  | Max. angular integration grid size:      302
  | Max. angular grid division number :        8
  | Radial grid for Hartree potential :     1301
  | Number of spin channels           :        1

------------------------------------------------------------
          Reading file control.in.
------------------------------------------------------------
  XC: Using PBE gradient-corrected functionals.
  Spin treatment: No spin polarisation.
  Non-relativistic treatment of kinetic energy.
  Charge =   0.000000E+00: Neutral system requested explicitly.
  Occupation type: Gaussian broadening, width =   0.100000E-01 eV.
  Using pulay charge density mixing.
  Pulay mixing - number of memorized iterations:   10
  Charge density mixing - mixing parameter:     0.2000
  Convergence accuracy of self-consistent charge density:  0.1000E-04
  Convergence accuracy of sum of eigenvalues:  0.1000E-02
  Convergence accuracy of total energy:  0.1000E-05
  Convergence accuracy of forces:  0.1000E-03
  Maximum number of s.-c. iterations  :   100
 
  Reading configuration options for species H                   .
  | Found nuclear charge :   1.0000
  | Found atomic mass :    1.00794000000000      amu
  | Found l_max for Hartree potential  :   4
  | Found cutoff potl. onset [A], width [A], scale factor :    3.50000    1.50000    1.00000
  | Threshold for basis-dependent cutoff potential is   0.100000E-03
  | Found data for basic radial integration grid :    24 points, outermost radius =    5.000 A
  | Found multiplier for basic radial grid :   1
  | Found angular grid specification: user-specified.
  | Specified grid contains     5 separate shells.
  | Check grid settings after all constraints further below.
  | Found free-atom valence shell :  1 s   1.000
  | No ionic wave fns used. Skipping ion_occ.
  | Found hydrogenic basis function :  2 s   2.100
  | Found hydrogenic basis function :  2 p   3.500
  Species H                   : Missing cutoff potential type.
  Defaulting to exp(1/x)/(1-x)^2 type cutoff potential.
  Species H : No 'logarithmic' tag. Using default grid for free atom:
  | Default logarithmic grid data [bohr] : 0.1000E-03 0.1000E+03 0.1012E+01
  Species H : On-site basis accuracy parameter (for Gram-Schmidt orthonormalisation) not specified.
  Using default value basis_acc =  0.1000000E-03.
  Species H                   : Using default innermost maximum threshold i_radial=  2 for radial functions.
  Species H                   : Default cutoff onset for free atom density etc. : 0.35000000E+01 AA.
  Species H                   : Basic radial grid will be enhanced according to radial_multiplier =   1, to contain    24 grid points.
 
  Reading configuration options for species C                   .
  | Found nuclear charge :   6.0000
  | Found atomic mass :    12.0107000000000      amu
  | Found l_max for Hartree potential  :   4
  | Found cutoff potl. onset [A], width [A], scale factor :    3.50000    1.50000    1.00000
  | Threshold for basis-dependent cutoff potential is   0.100000E-03
  | Found data for basic radial integration grid :    34 points, outermost radius =    5.000 A
  | Found multiplier for basic radial grid :   1
  | Found angular grid specification: user-specified.
  | Specified grid contains     5 separate shells.
  | Check grid settings after all constraints further below.
  | Found free-atom valence shell :  2 s   2.000
  | Found free-atom valence shell :  2 p   2.000
  | No ionic wave fns used. Skipping ion_occ.
  | No ionic wave fns used. Skipping ion_occ.
  | Found hydrogenic basis function :  2 p   1.700
  | Found hydrogenic basis function :  3 d   6.000
  | Found hydrogenic basis function :  2 s   4.900
  Species C                   : Missing cutoff potential type.
  Defaulting to exp(1/x)/(1-x)^2 type cutoff potential.
  Species C : No 'logarithmic' tag. Using default grid for free atom:
  | Default logarithmic grid data [bohr] : 0.1000E-03 0.1000E+03 0.1012E+01
  Species C : On-site basis accuracy parameter (for Gram-Schmidt orthonormalisation) not specified.
  Using default value basis_acc =  0.1000000E-03.
  Species C                   : Using default innermost maximum threshold i_radial=  2 for radial functions.
  Species C                   : Default cutoff onset for free atom density etc. : 0.35000000E+01 AA.
  Species C                   : Basic radial grid will be enhanced according to radial_multiplier =   1, to contain    34 grid points.
 
  Reading configuration options for species N                   .
  | Found nuclear charge :   7.0000
  | Found atomic mass :    14.0067000000000      amu
  | Found l_max for Hartree potential  :   4
  | Found cutoff potl. onset [A], width [A], scale factor :    3.50000    1.50000    1.00000
  | Threshold for basis-dependent cutoff potential is   0.100000E-03
  | Found data for basic radial integration grid :    35 points, outermost radius =    5.000 A
  | Found multiplier for basic radial grid :   1
  | Found angular grid specification: user-specified.
  | Specified grid contains     5 separate shells.
  | Check grid settings after all constraints further below.
  | Found free-atom valence shell :  2 s   2.000
  | Found free-atom valence shell :  2 p   3.000
  | No ionic wave fns used. Skipping ion_occ.
  | No ionic wave fns used. Skipping ion_occ.
  | Found hydrogenic basis function :  2 p   1.800
  | Found hydrogenic basis function :  3 d   6.800
  | Found hydrogenic basis function :  3 s   5.800
  Species N                   : Missing cutoff potential type.
  Defaulting to exp(1/x)/(1-x)^2 type cutoff potential.
  Species N : No 'logarithmic' tag. Using default grid for free atom:
  | Default logarithmic grid data [bohr] : 0.1000E-03 0.1000E+03 0.1012E+01
  Species N : On-site basis accuracy parameter (for Gram-Schmidt orthonormalisation) not specified.
  Using default value basis_acc =  0.1000000E-03.
  Species N                   : Using default innermost maximum threshold i_radial=  2 for radial functions.
  Species N                   : Default cutoff onset for free atom density etc. : 0.35000000E+01 AA.
  Species N                   : Basic radial grid will be enhanced according to radial_multiplier =   1, to contain    35 grid points.
 
  Reading configuration options for species O                   .
  | Found nuclear charge :   8.0000
  | Found atomic mass :    15.9994000000000      amu
  | Found l_max for Hartree potential  :   4
  | Found cutoff potl. onset [A], width [A], scale factor :    3.50000    1.50000    1.00000
  | Threshold for basis-dependent cutoff potential is   0.100000E-03
  | Found data for basic radial integration grid :    36 points, outermost radius =    5.000 A
  | Found multiplier for basic radial grid :   1
  | Found angular grid specification: user-specified.
  | Specified grid contains     5 separate shells.
  | Check grid settings after all constraints further below.
  | Found free-atom valence shell :  2 s   2.000
  | Found free-atom valence shell :  2 p   4.000
  | No ionic wave fns used. Skipping ion_occ.
  | No ionic wave fns used. Skipping ion_occ.
  | Found hydrogenic basis function :  2 p   1.800
  | Found hydrogenic basis function :  3 d   7.600
  | Found hydrogenic basis function :  3 s   6.400
  Species O                   : Missing cutoff potential type.
  Defaulting to exp(1/x)/(1-x)^2 type cutoff potential.
  Species O : No 'logarithmic' tag. Using default grid for free atom:
  | Default logarithmic grid data [bohr] : 0.1000E-03 0.1000E+03 0.1012E+01
  Species O : On-site basis accuracy parameter (for Gram-Schmidt orthonormalisation) not specified.
  Using default value basis_acc =  0.1000000E-03.
  Species O                   : Using default innermost maximum threshold i_radial=  2 for radial functions.
  Species O                   : Default cutoff onset for free atom density etc. : 0.35000000E+01 AA.
  Species O                   : Basic radial grid will be enhanced according to radial_multiplier =   1, to contain    36 grid points.
 
  Finished reading input file 'control.in'. Consistency checks are next.
 
  MPI_IN_PLACE appears to work with this MPI implementation.
  | Keeping use_mpi_in_place .true. (see manual).
  Target number of points in a grid batch is not set. Defaulting to  100
  Method for grid partitioning is not set. Defaulting to parallel hash+maxmin partitioning.
  Batch size limit is not set. Defaulting to    200
  By default, will store active basis functions for each batch.
  If in need of memory, prune_basis_once .false. can be used to disable this option.
  communication_type for Hartree potential was not specified.
  Defaulting to calc_hartree .
  Pulay mixer: Number of initial linear mixing iterations not set.
  Defaulting to    0 iterations.
  Work space size for distributed Hartree potential not set.
  Defaulting to   0.200000E+03 MB.
  Algorithm-dependent basis array size parameters:
  | n_max_pulay                         :       10
  Presetting      1001 iterations before the initial mixing cycle
  is restarted anyway using the sc_init_iter criterion / keyword.
  Presetting a factor      1.000 between actual scf density residual
  and density convergence criterion sc_accuracy_rho below which sc_init_iter
  takes no effect.
  Geometry relaxation not requested: no relaxation will be performed.
  Handling of forces: Unphysical translation and rotation will be removed from forces.
  No accuracy limit for integral partition fn. given. Defaulting to  0.1000E-14.
  No threshold value for u(r) in integrations given. Defaulting to  0.1000E-05.
  No accuracy for occupation numbers given. Defaulting to  0.1000E-12.
  No threshold value for occupation numbers given. Defaulting to  0.0000E+00.
  No accuracy for fermi level given. Defaulting to  0.1000E-19.
  Maximum # of iterations to find E_F not set. Defaulting to  200.
  Preferred method for the eigenvalue solver ('KS_method') not specified in 'control.in'.
  Defaulting to serial version, 'lapack_fast'.
  Will not use alltoall communication since running on < 1024 CPUs.
  Threshold for basis singularities not set.
  Default threshold for basis singularities:  0.1000E-04
  partition_type (choice of integration weights) for integrals was not specified.
  | Using a version of the partition function of Stratmann and coworkers ('stratmann_smoother').
  | At each grid point, the set of atoms used to build the partition table is smoothly restricted to
  | only those atoms whose free-atom density would be non-zero at that grid point.
  Partitioning for Hartree potential was not defined. Using partition_type for integrals.
  | Adjusted default value of keyword multip_moments_threshold to:       0.10000000E-11
  | This value may affect high angular momentum components of the Hartree potential in periodic systems.
  No q(lm)/r^(l+1) cutoff set for long-range Hartree potential.
  | Using default value of  0.100000E-09 .
  | Verify using the multipole_threshold keyword.
  Defaulting to new monopole extrapolation.
  Density update method: automatic selection selected.
------------------------------------------------------------


------------------------------------------------------------
          Reading geometry description geometry.in.
------------------------------------------------------------
  Input structure read successfully.
  The structure contains       13 atoms,  and a total of         48.000 electrons.

  Input geometry:
  | No unit cell requested.
  | Atomic structure:
  |       Atom                x [A]            y [A]            z [A]
  |    1: Species C             0.00000000        0.00000000        0.00000000
  |    2: Species H             1.09300000        0.00000000        0.00000000
  |    3: Species N            -0.47961000        0.00000000       -1.41207000
  |    4: Species H            -1.06774000       -0.82140000       -1.55775000
  |    5: Species H            -1.01553000        0.84987000       -1.57524000
  |    6: Species C            -0.49584000        1.26211000        0.72868000
  |    7: Species H            -1.58789000        1.28919000        0.74431000
  |    8: Species H            -0.13407000        1.27425000        1.75947000
  |    9: Species H            -0.13407000        2.16087000        0.22380000
  |   10: Species C            -0.39425000       -1.28861000        0.74398000
  |   11: Species O            -0.10189000       -1.56493000        1.88303000
  |   12: Species O            -1.10210000       -2.13717000        0.06896000
  |   13: Species H            -0.65517000       -2.04375000       -0.78924000
  |

  | The smallest distance between any two atoms is         0.97210131 AA.
  |
  | The first atom of this pair is atom number                     12 .
  | The second atom of this pair is atom number                    13 .

  Number of empty states per atom not set in control.in - providing a guess from actual geometry.
  | Total number of empty states used during s.c.f. cycle:       29
  If you use a very high smearing, use empty_states (per atom!) in control.in to increase this value.

  Structure-dependent array size parameters: 
  | Maximum number of distinct radial functions  :       21
  | Maximum number of basis functions            :      119
  | Number of Kohn-Sham states (occupied + empty):       53
------------------------------------------------------------

------------------------------------------------------------
          Preparing all fixed parts of the calculation.
------------------------------------------------------------
  Determining machine precision:
    2.225073858507201E-308
  Setting up grids for atomic and cluster calculations.

  Creating wave function, potential, and density for free atoms.

  Species: H

  List of occupied orbitals and eigenvalues:
    n    l              occ      energy [Ha]    energy [eV]
    1    0           1.0000        -0.237589        -6.4651


  Species: C

  List of occupied orbitals and eigenvalues:
    n    l              occ      energy [Ha]    energy [eV]
    1    0           2.0000       -10.038835      -273.1706
    2    0           2.0000        -0.502696       -13.6791
    2    1           2.0000        -0.191971        -5.2238


  Species: N

  List of occupied orbitals and eigenvalues:
    n    l              occ      energy [Ha]    energy [eV]
    1    0           2.0000       -14.128000      -384.4424
    2    0           2.0000        -0.681077       -18.5330
    2    1           3.0000        -0.259788        -7.0692


  Species: O

  List of occupied orbitals and eigenvalues:
    n    l              occ      energy [Ha]    energy [eV]
    1    0           2.0000       -18.898188      -514.2459
    2    0           2.0000        -0.878505       -23.9053
    2    1           4.0000        -0.331779        -9.0282

  Creating fixed part of basis set: Ionic, confined, hydrogenic.
 
  H                    hydrogenic:
 
  List of hydrogenic basis orbitals: 
    n    l      effective z      eigenvalue [eV]  inner max. [A]     outer max. [A]     outer radius [A]   
    2    0         2.100000       -14.9728           0.193243           1.317208           4.583499
    2    1         3.500000       -41.6669           0.602369           0.602369           3.723403
 
 
  C                    hydrogenic:
 
  List of hydrogenic basis orbitals: 
    n    l      effective z      eigenvalue [eV]  inner max. [A]     outer max. [A]     outer radius [A]   
    2    1         1.700000        -9.7616           1.230570           1.230570           4.607917
    3    2         6.000000       -54.4224           0.792453           0.792453           3.883070
    2    0         4.900000       -81.6679           0.082559           0.562749           3.078220
 
 
  N                    hydrogenic:
 
  List of hydrogenic basis orbitals: 
    n    l      effective z      eigenvalue [eV]  inner max. [A]     outer max. [A]     outer radius [A]   
    2    1         1.800000       -10.9749           1.177451           1.177451           4.573712
    3    2         6.800000       -69.9026           0.704619           0.704619           3.538137
    3    0         5.800000       -50.8545           0.067388           1.191934           4.250239
 
 
  O                    hydrogenic:
 
  List of hydrogenic basis orbitals: 
    n    l      effective z      eigenvalue [eV]  inner max. [A]     outer max. [A]     outer radius [A]   
    2    1         1.800000       -10.9749           1.164242           1.164242           4.578029
    3    2         7.600000       -87.3180           0.624125           0.624125           3.251020
    3    0         6.400000       -61.9207           0.061167           1.081902           4.001998
 

  Adding cutoff potential to free-atom effective potential.
  Creating atomic-like basis functions for current effective potential.

  Species H                   :

  List of atomic basis orbitals and eigenvalues:
    n    l      energy [Ha]    energy [eV]    outer radius [A]
    1    0        -0.237589        -6.4651       4.527807


  Species C                   :

  List of atomic basis orbitals and eigenvalues:
    n    l      energy [Ha]    energy [eV]    outer radius [A]
    1    0       -10.038835      -273.1706       1.934409
    2    0        -0.502696       -13.6791       4.496620
    2    1        -0.191971        -5.2238       4.551928


  Species N                   :

  List of atomic basis orbitals and eigenvalues:
    n    l      energy [Ha]    energy [eV]    outer radius [A]
    1    0       -14.128000      -384.4424       1.637919
    2    0        -0.681077       -18.5330       4.463241
    2    1        -0.259788        -7.0692       4.518138


  Species O                   :

  List of atomic basis orbitals and eigenvalues:
    n    l      energy [Ha]    energy [eV]    outer radius [A]
    1    0       -18.898188      -514.2459       1.415765
    2    0        -0.878505       -23.9053       4.413171
    2    1        -0.331779        -9.0282       4.522403

  Assembling full basis from fixed parts.
  | Species H :   atomic orbital   1 s accepted.
  | Species H :    hydro orbital   2 s accepted.
  | Species H :    hydro orbital   2 p accepted.
  | Species C :   atomic orbital   1 s accepted.
  | Species C :    hydro orbital   2 s accepted.
  | Species C :   atomic orbital   2 s accepted.
  | Species C :   atomic orbital   2 p accepted.
  | Species C :    hydro orbital   2 p accepted.
  | Species C :    hydro orbital   3 d accepted.
  | Species N :   atomic orbital   1 s accepted.
  | Species N :    hydro orbital   3 s accepted.
  | Species N :   atomic orbital   2 s accepted.
  | Species N :   atomic orbital   2 p accepted.
  | Species N :    hydro orbital   2 p accepted.
  | Species N :    hydro orbital   3 d accepted.
  | Species O :   atomic orbital   1 s accepted.
  | Species O :    hydro orbital   3 s accepted.
  | Species O :   atomic orbital   2 s accepted.
  | Species O :   atomic orbital   2 p accepted.
  | Species O :    hydro orbital   2 p accepted.
  | Species O :    hydro orbital   3 d accepted.
 
  Basis size parameters after reduction:
  | Total number of radial functions:       21
  | Total number of basis functions :      119
 
  Per-task memory consumption for arrays in subroutine allocate_ext:
  |           5.250512MB.
  Testing on-site integration grid accuracy.
  |  Species  Function  <phi|h_atom|phi> (log., in eV)  <phi|h_atom|phi> (rad., in eV)
           1        1                 -6.4663192853                 -6.4651273558
           1        2                 13.7111246313                 13.7170609718
           1        3                 25.2673269279                 25.2674696378
           2        4               -273.1705927641               -273.1705631568
           2        5                -10.7109323383                -10.7107120029
           2        6                 17.4381822266                 17.4352413244
           2        7                 -5.2255326521                 -5.2270484734
           2        8                  8.6835629259                  8.6603288385
           2        9                 27.4952418996                 27.4953360207
           3       10               -384.4424306495               -384.4423701208
           3       11                 12.5842251816                 12.5842222903
           3       12                -15.7264628251                -15.7264433455
           3       13                 -7.0696854293                 -7.0701769954
           3       14                  8.8090390882                  8.7901077751
           3       15                 35.9586762123                 35.9588528632
           4       16               -514.2458688638               -514.2457643834
           4       17                 15.1795651126                 15.1795290741
           4       18                -21.5359799773                -21.5360846186
           4       19                 -9.0283069236                 -9.0284644067
           4       20                  8.3027758564                  8.2834874195
           4       21                 45.8339351984                 45.8338762259

  Preparing densities etc. for the partition functions (integrals / Hartree potential).

  Preparations completed.
  max(cpu_time)          :      0.144 s.
  Wall clock time (cpu1) :      0.144 s.
------------------------------------------------------------

------------------------------------------------------------
          Begin self-consistency loop: Initialization.

          Date     :  20200805, Time     :  182428.178
------------------------------------------------------------

  Initializing index lists of integration centers etc. from given atomic structure:
  | Number of centers in hartree potential         :        13
  | Number of centers in hartree multipole         :        13
  | Number of centers in electron density summation:        13
  | Number of centers in basis integrals           :        13
  | Number of centers in integrals                 :        13
  | Number of centers in hamiltonian               :        13
  Partitioning the integration grid into batches with parallel hashing+maxmin method.
  | Number of batches:      961
  | Maximal batch size:     138
  | Minimal batch size:      66
  | Average batch size:      72.472
  | Standard deviation of batch sizes:      16.861

  Integration load balanced across     1 MPI tasks.
  Work distribution over tasks is as follows:
  Task     0 has      69646 integration points.
  Initializing partition tables, free-atom densities, potentials, etc. across the integration grid (initialize_grid_storage).
  | initialize_grid_storage: Actual outermost partition radius vs. multipole_radius_free
  | (-- VB: in principle, multipole_radius_free should be larger, hence this output)
  | Species        1: Confinement radius =              4.999999999999999 AA, multipole_radius_free =              5.054417573612229 AA.
  | Species        1: outer_partition_radius set to              5.054417573612229 AA .
  | Species        2: Confinement radius =              4.999999999999999 AA, multipole_radius_free =              5.019602836301480 AA.
  | Species        2: outer_partition_radius set to              5.019602836301480 AA .
  | Species        3: Confinement radius =              4.999999999999999 AA, multipole_radius_free =              5.043624274424571 AA.
  | Species        3: outer_partition_radius set to              5.043624274424571 AA .
  | Species        4: Confinement radius =              4.999999999999999 AA, multipole_radius_free =              5.048384829883283 AA.
  | Species        4: outer_partition_radius set to              5.048384829883283 AA .
  | Original list of interatomic distances with          13 x         13 entries is created.
  | Net number of integration points:    69646
  | of which are non-zero points    :    59332
  Renormalizing the initial density to the exact electron count on the 3D integration grid.
  | Initial density: Formal number of electrons (from input files) :      48.0000000000
  | Integrated number of electrons on 3D grid     :      47.9999505453
  | Charge integration error                      :      -0.0000494547
  | Normalization factor for density and gradient :       1.0000010303
  Obtaining max. number of non-zero basis functions in each batch (get_n_compute_maxes).
  | Maximal number of non-zero basis functions:      119 in task     0
  Selecting the method for density update.
  Loop over occupied states selected for charge density update.
  Allocating        0.050 MB for KS_eigenvector
  Integrating Hamiltonian matrix: batch-based integration.
  Time summed over all CPUs for integration: real work        0.491 s, elapsed        0.491 s
  Integrating overlap matrix.
  Time summed over all CPUs for integration: real work        0.211 s, elapsed        0.211 s

  Updating Kohn-Sham eigenvalues and eigenvectors using ELSI and the ELPA eigensolver.
  Overlap matrix is nonsingular
  | Lowest eigenvalue of overlap  :  0.48E-02
  | Highest eigenvalue of overlap :  0.64E+01
  Finished singularity check of overlap matrix
  | Time :     0.002 s
  Finished Cholesky decomposition
  | Time :     0.000 s
  Finished transformation to standard eigenproblem
  | Time :     0.000 s
  Starting LAPACK eigensolver
  Finished solving standard eigenproblem
  | Time :     0.002 s
  Finished back-transformation of eigenvectors
  | Time :     0.000 s

  Obtaining occupation numbers and chemical potential using ELSI.
  | Chemical potential (Fermi level):    -9.83989785eV
  Writing Kohn-Sham eigenvalues.

  State    Occupation    Eigenvalue [Ha]    Eigenvalue [eV]
      1       2.00000         -19.008463         -517.24658
      2       2.00000         -18.977139         -516.39423
      3       2.00000         -14.246618         -387.67019
      4       2.00000         -10.166906         -276.65558
      5       2.00000         -10.141727         -275.97043
      6       2.00000         -10.132150         -275.70984
      7       2.00000          -1.183530          -32.20548
      8       2.00000          -1.101906          -29.98438
      9       2.00000          -0.993384          -27.03135
     10       2.00000          -0.859798          -23.39630
     11       2.00000          -0.756061          -20.57346
     12       2.00000          -0.684895          -18.63695
     13       2.00000          -0.646646          -17.59612
     14       2.00000          -0.595542          -16.20552
     15       2.00000          -0.582609          -15.85359
     16       2.00000          -0.566995          -15.42873
     17       2.00000          -0.556651          -15.14725
     18       2.00000          -0.526115          -14.31633
     19       2.00000          -0.517704          -14.08744
     20       2.00000          -0.505068          -13.74360
     21       2.00000          -0.468704          -12.75409
     22       2.00000          -0.428916          -11.67141
     23       2.00000          -0.410981          -11.18336
     24       2.00000          -0.383008          -10.42219
     25       0.00000          -0.154230           -4.19682
     26       0.00000          -0.074276           -2.02114
     27       0.00000          -0.027805           -0.75661
     28       0.00000          -0.021830           -0.59402
     29       0.00000           0.001706            0.04643
     30       0.00000           0.002174            0.05917
     31       0.00000           0.020332            0.55327
     32       0.00000           0.030509            0.83018
     33       0.00000           0.058805            1.60015
     34       0.00000           0.064146            1.74551
     35       0.00000           0.098756            2.68728
     36       0.00000           0.129255            3.51719
     37       0.00000           0.158413            4.31063
     38       0.00000           0.200684            5.46089
     39       0.00000           0.219631            5.97647
     40       0.00000           0.240136            6.53443
     41       0.00000           0.256647            6.98371
     42       0.00000           0.259809            7.06977
     43       0.00000           0.287809            7.83168
     44       0.00000           0.305378            8.30977
     45       0.00000           0.339686            9.24333
     46       0.00000           0.355108            9.66297
     47       0.00000           0.373721           10.16946
     48       0.00000           0.382487           10.40801
     49       0.00000           0.438252           11.92544
     50       0.00000           0.486755           13.24527
     51       0.00000           0.510110           13.88079
     52       0.00000           0.537693           14.63136
     53       0.00000           0.555449           15.11453

  Highest occupied state (VBM) at    -10.42218897 eV
  | Occupation number:      2.00000000

  Lowest unoccupied state (CBM) at    -4.19682053 eV
  | Occupation number:      0.00000000

  Overall HOMO-LUMO gap:      6.22536843 eV.
  Calculating total energy contributions from superposition of free atom densities.

  Total energy components:
  | Sum of eigenvalues            :        -188.88303209 Ha       -5139.76881166 eV
  | XC energy correction          :         -41.81225632 Ha       -1137.76938354 eV
  | XC potential correction       :          53.75243454 Ha        1462.67816401 eV
  | Free-atom electrostatic energy:        -146.80420851 Ha       -3994.74576402 eV
  | Hartree energy correction     :           0.00000000 Ha           0.00000000 eV
  | vdW energy correction         :           0.00000000 Ha           0.00000000 eV
  | Entropy correction            :           0.00000000 Ha           0.00000000 eV
  | ---------------------------
  | Total energy                  :        -323.74706238 Ha       -8809.60579521 eV
  | Total energy, T -> 0          :        -323.74706238 Ha       -8809.60579521 eV  <-- do not rely on this value for anything but (periodic) metals
  | Electronic free energy        :        -323.74706238 Ha       -8809.60579521 eV

  Derived energy quantities:
  | Kinetic energy                :         320.55605011 Ha        8722.77393337 eV
  | Electrostatic energy          :        -602.49085617 Ha      -16394.61034504 eV
  | Energy correction for multipole
  | error in Hartree potential    :           0.00000000 Ha           0.00000000 eV
  | Sum of eigenvalues per atom                           :        -395.36683167 eV
  | Total energy (T->0) per atom                          :        -677.66198425 eV  <-- do not rely on this value for anything but (periodic) metals
  | Electronic free energy per atom                       :        -677.66198425 eV
  Initialize hartree_potential_storage
  Max. number of atoms included in rho_multipole:           13

  End scf initialization - timings             :  max(cpu_time)    wall_clock(cpu1)
  | Time for scf. initialization               :        1.144 s           1.146 s
  | Boundary condition initialization          :        0.000 s           0.001 s
  | Integration                                :        0.702 s           0.703 s
  | Solution of K.-S. eqns.                    :        0.004 s           0.004 s
  | Grid partitioning                          :        0.110 s           0.110 s
  | Preloading free-atom quantities on grid    :        0.002 s           0.003 s
  | Free-atom superposition energy             :        0.084 s           0.084 s
  | Total energy evaluation                    :        0.000 s           0.000 s

  Partial memory accounting:
  | Current value for overall tracked memory usage on task 0  :           0.165 MB
  | Peak value for overall tracked memory usage on task 0     :           0.676 MB after allocating wave
  | Largest tracked array allocation on task 0 so far         :           0.131 MB  when allocating H_times_psi
  Note:  These values currently only include a subset of arrays which are explicitly tracked.
  The "true" memory usage will be greater.
------------------------------------------------------------

------------------------------------------------------------
          Begin self-consistency iteration #    1

  Date     :  20200805, Time     :  182429.324
------------------------------------------------------------
  Evaluating new KS density.
  Integration grid: deviation in total charge (<rho> - N_e) =  -2.131628E-14
  Pulay mixing of updated and previous charge densities.

  Evaluating partitioned Hartree potential by multipole expansion.
  | Analytical far-field extrapolation by fixed multipoles:
  | Hartree multipole sum: apparent total charge =  -0.148807E-03
  Summing up the Hartree potential.
  Time summed over all CPUs for potential: real work        0.279 s, elapsed        0.279 s
  | RMS charge density error from multipole expansion :   0.593136E-02

  Integrating Hamiltonian matrix: batch-based integration.
  Time summed over all CPUs for integration: real work        0.495 s, elapsed        0.495 s

  Updating Kohn-Sham eigenvalues and eigenvectors using ELSI and the ELPA eigensolver.
  Finished Cholesky decomposition
  | Time :     0.000 s
  Finished transformation to standard eigenproblem
  | Time :     0.000 s
  Starting LAPACK eigensolver
  Finished solving standard eigenproblem
  | Time :     0.002 s
  Finished back-transformation of eigenvectors
  | Time :     0.000 s

  Obtaining occupation numbers and chemical potential using ELSI.
  | Chemical potential (Fermi level):    -4.54583549eV
  Writing Kohn-Sham eigenvalues.

  State    Occupation    Eigenvalue [Ha]    Eigenvalue [eV]
      1       2.00000         -18.910937         -514.59278
      2       2.00000         -18.833810         -512.49404
      3       2.00000         -14.105097         -383.81923
      4       2.00000         -10.117474         -275.31047
      5       2.00000         -10.066906         -273.93445
      6       2.00000         -10.034750         -273.05945
      7       2.00000          -1.138075          -30.96861
      8       2.00000          -1.038601          -28.26176
      9       2.00000          -0.929603          -25.29579
     10       2.00000          -0.797139          -21.69126
     11       2.00000          -0.706134          -19.21489
     12       2.00000          -0.645452          -17.56365
     13       2.00000          -0.594901          -16.18808
     14       2.00000          -0.538388          -14.65029
     15       2.00000          -0.526895          -14.33755
     16       2.00000          -0.518936          -14.12096
     17       2.00000          -0.490285          -13.34134
     18       2.00000          -0.467507          -12.72151
     19       2.00000          -0.460085          -12.51954
     20       2.00000          -0.448048          -12.19199
     21       2.00000          -0.414726          -11.28526
     22       2.00000          -0.370893          -10.09251
     23       2.00000          -0.339160           -9.22902
     24       2.00000          -0.314237           -8.55082
     25       0.00000          -0.117974           -3.21023
     26       0.00000          -0.054257           -1.47641
     27       0.00000           0.003961            0.10778
     28       0.00000           0.019883            0.54103
     29       0.00000           0.027006            0.73488
     30       0.00000           0.036272            0.98702
     31       0.00000           0.055186            1.50168
     32       0.00000           0.065397            1.77954
     33       0.00000           0.093009            2.53091
     34       0.00000           0.098252            2.67357
     35       0.00000           0.136858            3.72409
     36       0.00000           0.157092            4.27468
     37       0.00000           0.181547            4.94016
     38       0.00000           0.228424            6.21575
     39       0.00000           0.248167            6.75297
     40       0.00000           0.275032            7.48401
     41       0.00000           0.285926            7.78045
     42       0.00000           0.296487            8.06783
     43       0.00000           0.324164            8.82096
     44       0.00000           0.342326            9.31517
     45       0.00000           0.373725           10.16957
     46       0.00000           0.388106           10.56091
     47       0.00000           0.411821           11.20621
     48       0.00000           0.418292           11.38230
     49       0.00000           0.471119           12.81979
     50       0.00000           0.517519           14.08241
     51       0.00000           0.542942           14.77421
     52       0.00000           0.568353           15.46568
     53       0.00000           0.594890           16.18778

  Highest occupied state (VBM) at     -8.55081700 eV
  | Occupation number:      2.00000000

  Lowest unoccupied state (CBM) at    -3.21023491 eV
  | Occupation number:      0.00000000

  Overall HOMO-LUMO gap:      5.34058209 eV.

  Total energy components:
  | Sum of eigenvalues            :        -185.61607791 Ha       -5050.87046551 eV
  | XC energy correction          :         -42.13407599 Ha       -1146.52654220 eV
  | XC potential correction       :          54.17083660 Ha        1474.06346346 eV
  | Free-atom electrostatic energy:        -146.80420851 Ha       -3994.74576402 eV
  | Hartree energy correction     :          -3.18597745 Ha         -86.69485740 eV
  | vdW energy correction         :           0.00000000 Ha           0.00000000 eV
  | Entropy correction            :           0.00000000 Ha           0.00000000 eV
  | ---------------------------
  | Total energy                  :        -323.56950326 Ha       -8804.77416566 eV
  | Total energy, T -> 0          :        -323.56950326 Ha       -8804.77416566 eV  <-- do not rely on this value for anything but (periodic) metals
  | Electronic free energy        :        -323.56950326 Ha       -8804.77416566 eV

  Derived energy quantities:
  | Kinetic energy                :         322.31613381 Ha        8770.66824768 eV
  | Electrostatic energy          :        -603.75156108 Ha      -16428.91587114 eV
  | Energy correction for multipole
  | error in Hartree potential    :           0.01198625 Ha           0.32616251 eV
  | Sum of eigenvalues per atom                           :        -388.52849735 eV
  | Total energy (T->0) per atom                          :        -677.29032044 eV  <-- do not rely on this value for anything but (periodic) metals
  | Electronic free energy per atom                       :        -677.29032044 eV

  Self-consistency convergence accuracy:
  | Change of charge density      :  0.5807E+00
  | Change of sum of eigenvalues  :  0.8890E+02 eV
  | Change of total energy        :  0.4832E+01 eV

  End self-consistency iteration #     1       :  max(cpu_time)    wall_clock(cpu1)
  | Time for this iteration                    :        1.184 s           1.185 s
  | Charge density update                      :        0.393 s           0.393 s
  | Density mixing                             :        0.005 s           0.006 s
  | Hartree multipole update                   :        0.009 s           0.008 s
  | Hartree multipole summation                :        0.280 s           0.281 s
  | Integration                                :        0.495 s           0.495 s
  | Solution of K.-S. eqns.                    :        0.002 s           0.002 s
  | Total energy evaluation                    :        0.000 s           0.000 s

  Partial memory accounting:
  | Current value for overall tracked memory usage on task 0  :           0.165 MB
  | Peak value for overall tracked memory usage on task 0     :           0.691 MB after allocating gradient_basis_wave
  | Largest tracked array allocation on task 0 so far         :           0.394 MB  when allocating gradient_basis_wave
  Note:  These values currently only include a subset of arrays which are explicitly tracked.
  The "true" memory usage will be greater.
------------------------------------------------------------

------------------------------------------------------------
          Begin self-consistency iteration #    2

  Date     :  20200805, Time     :  182430.510
------------------------------------------------------------
  Evaluating new KS density.
  Integration grid: deviation in total charge (<rho> - N_e) =   4.263256E-14
  Pulay mixing of updated and previous charge densities.

  Evaluating partitioned Hartree potential by multipole expansion.
  | Analytical far-field extrapolation by fixed multipoles:
  | Hartree multipole sum: apparent total charge =  -0.273358E-03
  Summing up the Hartree potential.
  Time summed over all CPUs for potential: real work        0.280 s, elapsed        0.280 s
  | RMS charge density error from multipole expansion :   0.140699E-01

  Integrating Hamiltonian matrix: batch-based integration.
  Time summed over all CPUs for integration: real work        0.496 s, elapsed        0.496 s

  Updating Kohn-Sham eigenvalues and eigenvectors using ELSI and the ELPA eigensolver.
  Finished Cholesky decomposition
  | Time :     0.000 s
  Finished transformation to standard eigenproblem
  | Time :     0.000 s
  Starting LAPACK eigensolver
  Finished solving standard eigenproblem
  | Time :     0.001 s
  Finished back-transformation of eigenvectors
  | Time :     0.000 s

  Obtaining occupation numbers and chemical potential using ELSI.
  | Chemical potential (Fermi level):    -3.50812509eV
  Highest occupied state (VBM) at     -6.69577559 eV
  | Occupation number:      2.00000000

  Lowest unoccupied state (CBM) at    -1.95313673 eV
  | Occupation number:      0.00000000

  Overall HOMO-LUMO gap:      4.74263886 eV.

  Checking to see if s.c.f. parameters should be adjusted.

  Total energy components:
  | Sum of eigenvalues            :        -182.18715913 Ha       -4957.56483793 eV
  | XC energy correction          :         -42.48483160 Ha       -1156.07108807 eV
  | XC potential correction       :          54.62521339 Ha        1486.42768506 eV
  | Free-atom electrostatic energy:        -146.80420851 Ha       -3994.74576402 eV
  | Hartree energy correction     :          -6.64234623 Ha        -180.74743721 eV
  | vdW energy correction         :           0.00000000 Ha           0.00000000 eV
  | Entropy correction            :           0.00000000 Ha           0.00000000 eV
  | ---------------------------
  | Total energy                  :        -323.49333207 Ha       -8802.70144217 eV
  | Total energy, T -> 0          :        -323.49333207 Ha       -8802.70144217 eV  <-- do not rely on this value for anything but (periodic) metals
  | Electronic free energy        :        -323.49333207 Ha       -8802.70144217 eV

  Derived energy quantities:
  | Kinetic energy                :         323.60981555 Ha        8805.87111886 eV
  | Electrostatic energy          :        -604.61831602 Ha      -16452.50147296 eV
  | Energy correction for multipole
  | error in Hartree potential    :           0.02626167 Ha           0.71461650 eV
  | Sum of eigenvalues per atom                           :        -381.35114138 eV
  | Total energy (T->0) per atom                          :        -677.13088017 eV  <-- do not rely on this value for anything but (periodic) metals
  | Electronic free energy per atom                       :        -677.13088017 eV

  Self-consistency convergence accuracy:
  | Change of charge density      :  0.3639E+00
  | Change of sum of eigenvalues  :  0.9331E+02 eV
  | Change of total energy        :  0.2073E+01 eV

  End self-consistency iteration #     2       :  max(cpu_time)    wall_clock(cpu1)
  | Time for this iteration                    :        1.180 s           1.181 s
  | Charge density update                      :        0.386 s           0.386 s
  | Density mixing                             :        0.007 s           0.006 s
  | Hartree multipole update                   :        0.009 s           0.009 s
  | Hartree multipole summation                :        0.280 s           0.281 s
  | Integration                                :        0.496 s           0.496 s
  | Solution of K.-S. eqns.                    :        0.002 s           0.002 s
  | Total energy evaluation                    :        0.000 s           0.001 s

  Partial memory accounting:
  | Current value for overall tracked memory usage on task 0  :           0.166 MB
  | Peak value for overall tracked memory usage on task 0     :           0.691 MB after allocating gradient_basis_wave
  | Largest tracked array allocation on task 0 so far         :           0.394 MB  when allocating gradient_basis_wave
  Note:  These values currently only include a subset of arrays which are explicitly tracked.
  The "true" memory usage will be greater.
------------------------------------------------------------

------------------------------------------------------------
          Begin self-consistency iteration #    3

  Date     :  20200805, Time     :  182431.691
------------------------------------------------------------
  Evaluating new KS density.
  Integration grid: deviation in total charge (<rho> - N_e) =  -1.421085E-14
  Pulay mixing of updated and previous charge densities.

  Evaluating partitioned Hartree potential by multipole expansion.
  | Analytical far-field extrapolation by fixed multipoles:
  | Hartree multipole sum: apparent total charge =  -0.357270E-03
  Summing up the Hartree potential.
  Time summed over all CPUs for potential: real work        0.280 s, elapsed        0.280 s
  | RMS charge density error from multipole expansion :   0.221746E-01

  Integrating Hamiltonian matrix: batch-based integration.
  Time summed over all CPUs for integration: real work        0.495 s, elapsed        0.495 s

  Updating Kohn-Sham eigenvalues and eigenvectors using ELSI and the ELPA eigensolver.
  Finished Cholesky decomposition
  | Time :     0.000 s
  Finished transformation to standard eigenproblem
  | Time :     0.000 s
  Starting LAPACK eigensolver
  Finished solving standard eigenproblem
  | Time :     0.001 s
  Finished back-transformation of eigenvectors
  | Time :     0.000 s

  Obtaining occupation numbers and chemical potential using ELSI.
  | Chemical potential (Fermi level):    -3.02934046eV
  Highest occupied state (VBM) at     -6.04889250 eV
  | Occupation number:      2.00000000

  Lowest unoccupied state (CBM) at    -1.25573937 eV
  | Occupation number:      0.00000000

  Overall HOMO-LUMO gap:      4.79315312 eV.

  Total energy components:
  | Sum of eigenvalues            :        -180.87761157 Ha       -4921.93023587 eV
  | XC energy correction          :         -42.63867118 Ha       -1160.25727598 eV
  | XC potential correction       :          54.82119509 Ha        1491.76061832 eV
  | Free-atom electrostatic energy:        -146.80420851 Ha       -3994.74576402 eV
  | Hartree energy correction     :          -7.98174762 Ha        -217.19440348 eV
  | vdW energy correction         :           0.00000000 Ha           0.00000000 eV
  | Entropy correction            :           0.00000000 Ha           0.00000000 eV
  | ---------------------------
  | Total energy                  :        -323.48104379 Ha       -8802.36706103 eV
  | Total energy, T -> 0          :        -323.48104379 Ha       -8802.36706103 eV  <-- do not rely on this value for anything but (periodic) metals
  | Electronic free energy        :        -323.48104379 Ha       -8802.36706103 eV

  Derived energy quantities:
  | Kinetic energy                :         323.25010491 Ha        8796.08289448 eV
  | Electrostatic energy          :        -604.09247753 Ha      -16438.19267953 eV
  | Energy correction for multipole
  | error in Hartree potential    :           0.03698939 Ha           1.00653244 eV
  | Sum of eigenvalues per atom                           :        -378.61001814 eV
  | Total energy (T->0) per atom                          :        -677.10515854 eV  <-- do not rely on this value for anything but (periodic) metals
  | Electronic free energy per atom                       :        -677.10515854 eV

  Self-consistency convergence accuracy:
  | Change of charge density      :  0.2043E+00
  | Change of sum of eigenvalues  :  0.3563E+02 eV
  | Change of total energy        :  0.3344E+00 eV

  End self-consistency iteration #     3       :  max(cpu_time)    wall_clock(cpu1)
  | Time for this iteration                    :        1.180 s           1.181 s
  | Charge density update                      :        0.386 s           0.386 s
  | Density mixing                             :        0.008 s           0.008 s
  | Hartree multipole update                   :        0.008 s           0.009 s
  | Hartree multipole summation                :        0.280 s           0.280 s
  | Integration                                :        0.495 s           0.495 s
  | Solution of K.-S. eqns.                    :        0.002 s           0.003 s
  | Total energy evaluation                    :        0.000 s           0.000 s

  Partial memory accounting:
  | Current value for overall tracked memory usage on task 0  :           0.166 MB
  | Peak value for overall tracked memory usage on task 0     :           0.692 MB after allocating gradient_basis_wave
  | Largest tracked array allocation on task 0 so far         :           0.394 MB  when allocating gradient_basis_wave
  Note:  These values currently only include a subset of arrays which are explicitly tracked.
  The "true" memory usage will be greater.
------------------------------------------------------------

------------------------------------------------------------
          Begin self-consistency iteration #    4

  Date     :  20200805, Time     :  182432.872
------------------------------------------------------------
  Evaluating new KS density.
  Integration grid: deviation in total charge (<rho> - N_e) =   1.421085E-14
  Pulay mixing of updated and previous charge densities.

  Evaluating partitioned Hartree potential by multipole expansion.
  | Analytical far-field extrapolation by fixed multipoles:
  | Hartree multipole sum: apparent total charge =  -0.383579E-03
  Summing up the Hartree potential.
  Time summed over all CPUs for potential: real work        0.280 s, elapsed        0.280 s
  | RMS charge density error from multipole expansion :   0.257442E-01

  Integrating Hamiltonian matrix: batch-based integration.
  Time summed over all CPUs for integration: real work        0.498 s, elapsed        0.498 s

  Updating Kohn-Sham eigenvalues and eigenvectors using ELSI and the ELPA eigensolver.
  Finished Cholesky decomposition
  | Time :     0.000 s
  Finished transformation to standard eigenproblem
  | Time :     0.000 s
  Starting LAPACK eigensolver
  Finished solving standard eigenproblem
  | Time :     0.001 s
  Finished back-transformation of eigenvectors
  | Time :     0.000 s

  Obtaining occupation numbers and chemical potential using ELSI.
  | Chemical potential (Fermi level):    -2.94108283eV
  Highest occupied state (VBM) at     -5.86954505 eV
  | Occupation number:      2.00000000

  Lowest unoccupied state (CBM) at    -1.17655732 eV
  | Occupation number:      0.00000000

  Overall HOMO-LUMO gap:      4.69298773 eV.

  Total energy components:
  | Sum of eigenvalues            :        -180.78968591 Ha       -4919.53765704 eV
  | XC energy correction          :         -42.67411600 Ha       -1161.22177862 eV
  | XC potential correction       :          54.86543277 Ha        1492.96438682 eV
  | Free-atom electrostatic energy:        -146.80420851 Ha       -3994.74576402 eV
  | Hartree energy correction     :          -8.07745637 Ha        -219.79877104 eV
  | vdW energy correction         :           0.00000000 Ha           0.00000000 eV
  | Entropy correction            :           0.00000000 Ha           0.00000000 eV
  | ---------------------------
  | Total energy                  :        -323.48003402 Ha       -8802.33958390 eV
  | Total energy, T -> 0          :        -323.48003402 Ha       -8802.33958390 eV  <-- do not rely on this value for anything but (periodic) metals
  | Electronic free energy        :        -323.48003402 Ha       -8802.33958390 eV

  Derived energy quantities:
  | Kinetic energy                :         322.83901060 Ha        8784.89644899 eV
  | Electrostatic energy          :        -603.64492862 Ha      -16426.01425427 eV
  | Energy correction for multipole
  | error in Hartree potential    :           0.04110639 Ha           1.11856177 eV
  | Sum of eigenvalues per atom                           :        -378.42597362 eV
  | Total energy (T->0) per atom                          :        -677.10304492 eV  <-- do not rely on this value for anything but (periodic) metals
  | Electronic free energy per atom                       :        -677.10304492 eV

  Self-consistency convergence accuracy:
  | Change of charge density      :  0.6796E-01
  | Change of sum of eigenvalues  :  0.2393E+01 eV
  | Change of total energy        :  0.2748E-01 eV

  End self-consistency iteration #     4       :  max(cpu_time)    wall_clock(cpu1)
  | Time for this iteration                    :        1.184 s           1.186 s
  | Charge density update                      :        0.385 s           0.385 s
  | Density mixing                             :        0.009 s           0.009 s
  | Hartree multipole update                   :        0.009 s           0.009 s
  | Hartree multipole summation                :        0.280 s           0.281 s
  | Integration                                :        0.498 s           0.498 s
  | Solution of K.-S. eqns.                    :        0.002 s           0.002 s
  | Total energy evaluation                    :        0.000 s           0.000 s

  Partial memory accounting:
  | Current value for overall tracked memory usage on task 0  :           0.166 MB
  | Peak value for overall tracked memory usage on task 0     :           0.692 MB after allocating gradient_basis_wave
  | Largest tracked array allocation on task 0 so far         :           0.394 MB  when allocating gradient_basis_wave
  Note:  These values currently only include a subset of arrays which are explicitly tracked.
  The "true" memory usage will be greater.
------------------------------------------------------------

------------------------------------------------------------
          Begin self-consistency iteration #    5

  Date     :  20200805, Time     :  182434.058
------------------------------------------------------------
  Evaluating new KS density.
  Integration grid: deviation in total charge (<rho> - N_e) =  -6.394885E-14
  Pulay mixing of updated and previous charge densities.

  Evaluating partitioned Hartree potential by multipole expansion.
  | Analytical far-field extrapolation by fixed multipoles:
  | Hartree multipole sum: apparent total charge =  -0.378741E-03
  Summing up the Hartree potential.
  Time summed over all CPUs for potential: real work        0.280 s, elapsed        0.280 s
  | RMS charge density error from multipole expansion :   0.255020E-01

  Integrating Hamiltonian matrix: batch-based integration.
  Time summed over all CPUs for integration: real work        0.499 s, elapsed        0.499 s

  Updating Kohn-Sham eigenvalues and eigenvectors using ELSI and the ELPA eigensolver.
  Finished Cholesky decomposition
  | Time :     0.000 s
  Finished transformation to standard eigenproblem
  | Time :     0.000 s
  Starting LAPACK eigensolver
  Finished solving standard eigenproblem
  | Time :     0.001 s
  Finished back-transformation of eigenvectors
  | Time :     0.000 s

  Obtaining occupation numbers and chemical potential using ELSI.
  | Chemical potential (Fermi level):    -2.98188199eV
  Highest occupied state (VBM) at     -5.95753382 eV
  | Occupation number:      2.00000000

  Lowest unoccupied state (CBM) at    -1.24814448 eV
  | Occupation number:      0.00000000

  Overall HOMO-LUMO gap:      4.70938935 eV.

  Total energy components:
  | Sum of eigenvalues            :        -180.93620987 Ha       -4923.52477662 eV
  | XC energy correction          :         -42.65482857 Ha       -1160.69694109 eV
  | XC potential correction       :          54.84043998 Ha        1492.28429834 eV
  | Free-atom electrostatic energy:        -146.80420851 Ha       -3994.74576402 eV
  | Hartree energy correction     :          -7.92493342 Ha        -215.64841052 eV
  | vdW energy correction         :           0.00000000 Ha           0.00000000 eV
  | Entropy correction            :           0.00000000 Ha           0.00000000 eV
  | ---------------------------
  | Total energy                  :        -323.47974040 Ha       -8802.33159391 eV
  | Total energy, T -> 0          :        -323.47974040 Ha       -8802.33159391 eV  <-- do not rely on this value for anything but (periodic) metals
  | Electronic free energy        :        -323.47974040 Ha       -8802.33159391 eV

  Derived energy quantities:
  | Kinetic energy                :         322.75657877 Ha        8782.65336477 eV
  | Electrostatic energy          :        -603.58149059 Ha      -16424.28801759 eV
  | Energy correction for multipole
  | error in Hartree potential    :           0.04051680 Ha           1.10251813 eV
  | Sum of eigenvalues per atom                           :        -378.73267512 eV
  | Total energy (T->0) per atom                          :        -677.10243030 eV  <-- do not rely on this value for anything but (periodic) metals
  | Electronic free energy per atom                       :        -677.10243030 eV

  Self-consistency convergence accuracy:
  | Change of charge density      :  0.2212E-01
  | Change of sum of eigenvalues  : -0.3987E+01 eV
  | Change of total energy        :  0.7990E-02 eV

  End self-consistency iteration #     5       :  max(cpu_time)    wall_clock(cpu1)
  | Time for this iteration                    :        1.186 s           1.187 s
  | Charge density update                      :        0.385 s           0.386 s
  | Density mixing                             :        0.010 s           0.010 s
  | Hartree multipole update                   :        0.009 s           0.009 s
  | Hartree multipole summation                :        0.280 s           0.280 s
  | Integration                                :        0.499 s           0.499 s
  | Solution of K.-S. eqns.                    :        0.002 s           0.003 s
  | Total energy evaluation                    :        0.000 s           0.000 s

  Partial memory accounting:
  | Current value for overall tracked memory usage on task 0  :           0.166 MB
  | Peak value for overall tracked memory usage on task 0     :           0.692 MB after allocating gradient_basis_wave
  | Largest tracked array allocation on task 0 so far         :           0.394 MB  when allocating gradient_basis_wave
  Note:  These values currently only include a subset of arrays which are explicitly tracked.
  The "true" memory usage will be greater.
------------------------------------------------------------

------------------------------------------------------------
          Begin self-consistency iteration #    6

  Date     :  20200805, Time     :  182435.245
------------------------------------------------------------
  Evaluating new KS density.
  Integration grid: deviation in total charge (<rho> - N_e) =  -7.105427E-15
  Pulay mixing of updated and previous charge densities.

  Evaluating partitioned Hartree potential by multipole expansion.
  | Analytical far-field extrapolation by fixed multipoles:
  | Hartree multipole sum: apparent total charge =  -0.380033E-03
  Summing up the Hartree potential.
  Time summed over all CPUs for potential: real work        0.280 s, elapsed        0.280 s
  | RMS charge density error from multipole expansion :   0.258571E-01

  Integrating Hamiltonian matrix: batch-based integration.
  Time summed over all CPUs for integration: real work        0.495 s, elapsed        0.495 s

  Updating Kohn-Sham eigenvalues and eigenvectors using ELSI and the ELPA eigensolver.
  Finished Cholesky decomposition
  | Time :     0.000 s
  Finished transformation to standard eigenproblem
  | Time :     0.000 s
  Starting LAPACK eigensolver
  Finished solving standard eigenproblem
  | Time :     0.002 s
  Finished back-transformation of eigenvectors
  | Time :     0.000 s

  Obtaining occupation numbers and chemical potential using ELSI.
  | Chemical potential (Fermi level):    -2.98518263eV
  Highest occupied state (VBM) at     -5.95511103 eV
  | Occupation number:      2.00000000

  Lowest unoccupied state (CBM) at    -1.28348790 eV
  | Occupation number:      0.00000000

  Overall HOMO-LUMO gap:      4.67162313 eV.

  Total energy components:
  | Sum of eigenvalues            :        -180.98059055 Ha       -4924.73243651 eV
  | XC energy correction          :         -42.64923422 Ha       -1160.54471109 eV
  | XC potential correction       :          54.83314438 Ha        1492.08577505 eV
  | Free-atom electrostatic energy:        -146.80420851 Ha       -3994.74576402 eV
  | Hartree energy correction     :          -7.87878573 Ha        -214.39266801 eV
  | vdW energy correction         :           0.00000000 Ha           0.00000000 eV
  | Entropy correction            :           0.00000000 Ha           0.00000000 eV
  | ---------------------------
  | Total energy                  :        -323.47967464 Ha       -8802.32980459 eV
  | Total energy, T -> 0          :        -323.47967464 Ha       -8802.32980459 eV  <-- do not rely on this value for anything but (periodic) metals
  | Electronic free energy        :        -323.47967464 Ha       -8802.32980459 eV

  Derived energy quantities:
  | Kinetic energy                :         322.66242983 Ha        8780.09144185 eV
  | Electrostatic energy          :        -603.49287025 Ha      -16421.87653535 eV
  | Energy correction for multipole
  | error in Hartree potential    :           0.04067629 Ha           1.10685813 eV
  | Sum of eigenvalues per atom                           :        -378.82557204 eV
  | Total energy (T->0) per atom                          :        -677.10229266 eV  <-- do not rely on this value for anything but (periodic) metals
  | Electronic free energy per atom                       :        -677.10229266 eV

  Self-consistency convergence accuracy:
  | Change of charge density      :  0.1090E-01
  | Change of sum of eigenvalues  : -0.1208E+01 eV
  | Change of total energy        :  0.1789E-02 eV

  End self-consistency iteration #     6       :  max(cpu_time)    wall_clock(cpu1)
  | Time for this iteration                    :        1.184 s           1.185 s
  | Charge density update                      :        0.386 s           0.386 s
  | Density mixing                             :        0.012 s           0.012 s
  | Hartree multipole update                   :        0.009 s           0.009 s
  | Hartree multipole summation                :        0.280 s           0.280 s
  | Integration                                :        0.495 s           0.495 s
  | Solution of K.-S. eqns.                    :        0.002 s           0.002 s
  | Total energy evaluation                    :        0.000 s           0.000 s

  Partial memory accounting:
  | Current value for overall tracked memory usage on task 0  :           0.166 MB
  | Peak value for overall tracked memory usage on task 0     :           0.692 MB after allocating gradient_basis_wave
  | Largest tracked array allocation on task 0 so far         :           0.394 MB  when allocating gradient_basis_wave
  Note:  These values currently only include a subset of arrays which are explicitly tracked.
  The "true" memory usage will be greater.
------------------------------------------------------------

------------------------------------------------------------
          Begin self-consistency iteration #    7

  Date     :  20200805, Time     :  182436.431
------------------------------------------------------------
  Evaluating new KS density.
  Integration grid: deviation in total charge (<rho> - N_e) =   2.131628E-14
  Pulay mixing of updated and previous charge densities.

  Evaluating partitioned Hartree potential by multipole expansion.
  | Analytical far-field extrapolation by fixed multipoles:
  | Hartree multipole sum: apparent total charge =  -0.380818E-03
  Summing up the Hartree potential.
  Time summed over all CPUs for potential: real work        0.280 s, elapsed        0.280 s
  | RMS charge density error from multipole expansion :   0.259968E-01

  Integrating Hamiltonian matrix: batch-based integration.
  Time summed over all CPUs for integration: real work        0.498 s, elapsed        0.498 s

  Updating Kohn-Sham eigenvalues and eigenvectors using ELSI and the ELPA eigensolver.
  Finished Cholesky decomposition
  | Time :     0.000 s
  Finished transformation to standard eigenproblem
  | Time :     0.000 s
  Starting LAPACK eigensolver
  Finished solving standard eigenproblem
  | Time :     0.002 s
  Finished back-transformation of eigenvectors
  | Time :     0.000 s

[...]
  |   Hirshfeld dipole moment :      0.05815065
  |   Hirshfeld second moments:      0.01326828      -0.02654527      -0.01435675
  |                                 -0.02654527      -0.02480780       0.00534744
  |                                 -0.01435675       0.00534744      -0.01878091
  ----------------------------------------------------------------------
  | Atom    12: O
  |   Hirshfeld charge        :     -0.13820898
  |   Free atom volume        :     23.61338643
  |   Hirshfeld volume        :     20.92692099
  |   Hirshfeld dipole vector :      0.02350012       0.03388655      -0.01036535
  |   Hirshfeld dipole moment :      0.04252052
  |   Hirshfeld second moments:      0.05541100      -0.01308769      -0.01087497
  |                                 -0.01308769       0.03676605       0.02551245
  |                                 -0.01087497       0.02551245       0.08582896
  ----------------------------------------------------------------------
  | Atom    13: H
  |   Hirshfeld charge        :      0.16161457
  |   Free atom volume        :      9.95071624
  |   Hirshfeld volume        :      6.56392854
  |   Hirshfeld dipole vector :      0.04736089      -0.02490469      -0.09077218
  |   Hirshfeld dipole moment :      0.10537023
  |   Hirshfeld second moments:      0.11847048      -0.00894776       0.00887918
  |                                 -0.00894776       0.08869855       0.02389812
  |                                  0.00887918       0.02389812       0.10100213
  ----------------------------------------------------------------------


  Total energy components:
  | Sum of eigenvalues            :        -180.97280511 Ha       -4924.52058377 eV
  | XC energy correction          :         -42.64715189 Ha       -1160.48804800 eV
  | XC potential correction       :          54.83051712 Ha        1492.01428365 eV
  | Free-atom electrostatic energy:        -146.80420851 Ha       -3994.74576402 eV
  | Hartree energy correction     :          -7.88600688 Ha        -214.58916548 eV
  | vdW energy correction         :          -0.00321376 Ha          -0.08745075 eV
  | Entropy correction            :           0.00000000 Ha           0.00000000 eV
  | ---------------------------
  | Total energy                  :        -323.48286903 Ha       -8802.41672838 eV
  | Total energy, T -> 0          :        -323.48286903 Ha       -8802.41672838 eV  <-- do not rely on this value for anything but (periodic) metals
  | Electronic free energy        :        -323.48286903 Ha       -8802.41672838 eV

  Derived energy quantities:
  | Kinetic energy                :         322.62690727 Ha        8779.12482366 eV
  | Electrostatic energy          :        -603.45941065 Ha      -16420.96605329 eV
  | Energy correction for multipole
  | error in Hartree potential    :           0.04073189 Ha           1.10837119 eV
  | Sum of eigenvalues per atom                           :        -378.80927567 eV
  | Total energy (T->0) per atom                          :        -677.10897911 eV  <-- do not rely on this value for anything but (periodic) metals
  | Electronic free energy per atom                       :        -677.10897911 eV

  atomic forces [eV/Ang]:
  -----------------------
  atom #    1
   Hellmann-Feynman              :  0.757806E+00 -0.603994E-01  0.141086E+01
   Ionic forces                  :  0.000000E+00  0.000000E+00  0.000000E+00
   Multipole                     : -0.342773E-01  0.289815E+00 -0.282949E+00
   Pulay + GGA                   : -0.115852E+01  0.105430E+00 -0.149330E+01
   Van der Waals                 :  0.228776E-02  0.156152E-02 -0.110171E-02
   ----------------------------------------------------------------
   Total forces(   1)            : -0.432702E+00  0.336407E+00 -0.366492E+00
  atom #    2
   Hellmann-Feynman              :  0.370102E+00  0.388156E-01  0.818440E-01
   Ionic forces                  :  0.000000E+00  0.000000E+00  0.000000E+00
   Multipole                     :  0.161112E+00  0.163166E-01 -0.352467E-01
   Pulay + GGA                   : -0.154873E+00  0.184917E-01 -0.109419E-01
   Van der Waals                 :  0.672784E-02 -0.348997E-02 -0.653940E-02
   ----------------------------------------------------------------
   Total forces(   2)            :  0.383069E+00  0.701339E-01  0.291160E-01
  atom #    3
   Hellmann-Feynman              :  0.937562E+01 -0.828783E+00 -0.535455E+01
   Ionic forces                  :  0.000000E+00  0.000000E+00  0.000000E+00
   Multipole                     : -0.211372E+00  0.141675E+00 -0.110536E+01
   Pulay + GGA                   : -0.837342E+01  0.543756E+00  0.685443E+01
   Van der Waals                 :  0.356643E-02 -0.476421E-02 -0.841346E-02
   ----------------------------------------------------------------
   Total forces(   3)            :  0.794388E+00 -0.148117E+00  0.386112E+00
  atom #    4
   Hellmann-Feynman              : -0.495942E+00  0.511891E+00 -0.323845E+00
   Ionic forces                  :  0.000000E+00  0.000000E+00  0.000000E+00
   Multipole                     : -0.111275E+00 -0.212909E-01 -0.627586E-01
   Pulay + GGA                   :  0.862597E-01  0.277586E+00 -0.375705E-01
   Van der Waals                 : -0.790632E-03  0.311371E-02  0.228364E-02
   ----------------------------------------------------------------
   Total forces(   4)            : -0.521748E+00  0.771301E+00 -0.421891E+00
  atom #    5
   Hellmann-Feynman              : -0.360785E+00 -0.275504E-01 -0.122705E+00
   Ionic forces                  :  0.000000E+00  0.000000E+00  0.000000E+00
   Multipole                     : -0.742409E-01  0.499712E-01 -0.815951E-01
   Pulay + GGA                   :  0.184801E+00 -0.161639E+00  0.734608E-03
   Van der Waals                 : -0.725683E-03 -0.102218E-01 -0.504763E-02
   ----------------------------------------------------------------
   Total forces(   5)            : -0.250950E+00 -0.149440E+00 -0.208613E+00
  atom #    6
   Hellmann-Feynman              : -0.110208E+00 -0.476844E+00  0.361208E+00
   Ionic forces                  :  0.000000E+00  0.000000E+00  0.000000E+00
   Multipole                     : -0.113150E+00  0.564285E+00  0.275118E+00
   Pulay + GGA                   :  0.407107E+00 -0.550032E+00 -0.439204E+00
   Van der Waals                 : -0.264473E-02  0.457107E-02 -0.228030E-02
   ----------------------------------------------------------------
   Total forces(   6)            :  0.181104E+00 -0.458020E+00  0.194842E+00
  atom #    7
   Hellmann-Feynman              : -0.231199E+00 -0.675314E-01 -0.260256E-01
   Ionic forces                  :  0.000000E+00  0.000000E+00  0.000000E+00
   Multipole                     : -0.118228E+00  0.483815E-01  0.251943E-01
   Pulay + GGA                   :  0.108410E+00 -0.244033E-02  0.221871E-01
   Van der Waals                 : -0.299013E-02  0.184027E-02  0.769303E-02
   ----------------------------------------------------------------
   Total forces(   7)            : -0.244008E+00 -0.197500E-01  0.290488E-01
  atom #    8
   Hellmann-Feynman              :  0.943384E-01  0.148248E-01  0.160153E+00
   Ionic forces                  :  0.000000E+00  0.000000E+00  0.000000E+00
   Multipole                     :  0.119023E-01  0.601431E-01  0.120377E+00
   Pulay + GGA                   : -0.493937E-01 -0.478227E-01 -0.116150E+00
   Van der Waals                 : -0.300662E-02  0.113235E-01  0.549630E-03
   ----------------------------------------------------------------
   Total forces(   8)            :  0.538404E-01  0.384687E-01  0.164929E+00
  atom #    9
   Hellmann-Feynman              :  0.133723E+00  0.532460E-01 -0.196333E+00
   Ionic forces                  :  0.000000E+00  0.000000E+00  0.000000E+00
   Multipole                     :  0.176808E-01  0.129559E+00 -0.107171E-01
   Pulay + GGA                   : -0.246262E-01 -0.734813E-01  0.691305E-01
   Van der Waals                 : -0.599108E-03  0.653206E-02  0.810078E-02
   ----------------------------------------------------------------
   Total forces(   9)            :  0.126178E+00  0.115855E+00 -0.129819E+00
  atom #   10
   Hellmann-Feynman              :  0.313863E+01  0.465783E+01  0.226575E+01
   Ionic forces                  :  0.000000E+00  0.000000E+00  0.000000E+00
   Multipole                     : -0.353013E-02 -0.632384E-02  0.238947E+00
   Pulay + GGA                   : -0.187059E+01 -0.290802E+01 -0.125053E+00
   Van der Waals                 :  0.284706E-02 -0.116895E-01 -0.349649E-03
   ----------------------------------------------------------------
   Total forces(  10)            :  0.126736E+01  0.173180E+01  0.237929E+01
  atom #   11
   Hellmann-Feynman              :  0.412112E+01 -0.250639E+01  0.140405E+02
   Ionic forces                  :  0.000000E+00  0.000000E+00  0.000000E+00
   Multipole                     :  0.232712E+00 -0.579534E+00  0.738059E+00
   Pulay + GGA                   : -0.393770E+01  0.384452E+01 -0.137899E+02
   Van der Waals                 : -0.278513E-02 -0.108930E-01  0.668809E-02
   ----------------------------------------------------------------
   Total forces(  11)            :  0.413343E+00  0.747705E+00  0.995369E+00
  atom #   12
   Hellmann-Feynman              : -0.108077E+02 -0.102550E+02  0.186640E+01
   Ionic forces                  :  0.000000E+00  0.000000E+00  0.000000E+00
   Multipole                     : -0.781196E+00 -0.158582E+01  0.519759E-01
   Pulay + GGA                   :  0.104285E+02  0.964109E+01 -0.406475E+01
   Van der Waals                 :  0.183437E-03  0.778760E-02  0.344985E-02
   ----------------------------------------------------------------
   Total forces(  12)            : -0.116015E+01 -0.219200E+01 -0.214292E+01
  atom #   13
   Hellmann-Feynman              : -0.570775E+00 -0.715796E+00 -0.124938E+01
   Ionic forces                  :  0.000000E+00  0.000000E+00  0.000000E+00
   Multipole                     :  0.107454E+00 -0.244265E-01 -0.812719E-01
   Pulay + GGA                   : -0.145256E+00 -0.108699E+00  0.419740E+00
   Van der Waals                 : -0.207049E-02  0.432876E-02 -0.503289E-02
   ----------------------------------------------------------------
   Total forces(  13)            : -0.610648E+00 -0.844593E+00 -0.915949E+00

  Timings for VdW correction (Tkatchenko-Scheffler 2009 or later):
  | CPU time:        0.090 s, Wall clock time:        0.090 s.
  Removing unitary transformations (pure translations, rotations) from forces on atoms.
  Atomic forces before filtering:
  | Net force on center of mass :  -0.923431E-03 -0.246656E-03 -0.697896E-02 eV/A
  | Net torque on center of mass:   0.976018E-02  0.225700E-02  0.583212E-02 eV
  Atomic forces after filtering:
  | Net force on center of mass :  -0.178406E-15 -0.356812E-15  0.178406E-15 eV/A
  | Net torque on center of mass:   0.273785E-14 -0.401236E-15  0.377634E-15 eV

  Energy and forces in a compact form:
  | Total energy uncorrected      :         -0.880241672837575E+04 eV
  | Total energy corrected        :         -0.880241672837575E+04 eV  <-- do not rely on this value for anything but (periodic) metals
  | Electronic free energy        :         -0.880241672837575E+04 eV
  Total atomic forces (unitary forces cleaned) [eV/Ang]:
  |   1         -0.432604346973304E+00          0.336300132095688E+00         -0.365910551266796E+00
  |   2          0.383166964946614E+00          0.697721530847955E-01          0.298505790513027E-01
  |   3          0.794683600398808E+00         -0.148484633942204E+00          0.386626323250892E+00
  |   4         -0.521623306436361E+00          0.771031394344255E+00         -0.421241603928626E+00
  |   5         -0.250433313142560E+00         -0.149725650421102E+00         -0.208397917606664E+00
  |   6          0.181394974986397E+00         -0.457818033481439E+00          0.195020256803669E+00
  |   7         -0.243713092062372E+00         -0.192894494758949E-01          0.290673433342652E-01
  |   8          0.539895064138423E-01          0.388581821049580E-01          0.165155599898724E+00
  |   9          0.126749103759168E+00          0.115839091536796E+00         -0.129826962972519E+00
  |  10          0.126705320451323E+01          0.173197901027742E+01          0.238015726676366E+01
  |  11          0.412812629305198E+00          0.748119995146059E+00          0.996349325901580E+00
  |  12         -0.116055957360123E+01         -0.219182640494952E+01         -0.214193067394726E+01
  |  13         -0.610916352107424E+00         -0.844755786319809E+00         -0.914918985282232E+00

  ------------------------------------ 
  Start decomposition of the XC Energy 
  ------------------------------------ 
  X and C from original XC functional choice 
  Hartree-Fock Energy :          0.000000000 Ha              0.000000000 eV
  X Energy            :        -41.044119060 Ha          -1116.867305202 eV
  C Energy            :         -1.603032833 Ha            -43.620742796 eV
  Total XC Energy     :        -42.647151893 Ha          -1160.488047997 eV
  ------------------------------------ 
  LDA X and C from self-consistent density 
  X Energy LDA        :        -37.266083194 Ha          -1014.061718609 eV
  C Energy LDA        :         -3.139455579 Ha            -85.428932893 eV
  ------------------------------------ 
  End decomposition of the XC Energy 
  ------------------------------------ 

------------------------------------------------------------

------------------------------------------------------------------------------
  Final output of selected total energy values:

  The following output summarizes some interesting total energy values
  at the end of a run (AFTER all relaxation, molecular dynamics, etc.).

  | Total energy of the DFT / Hartree-Fock s.c.f. calculation      :          -8802.416728376 eV
  | Final zero-broadening corrected energy (caution - metals only) :          -8802.416728376 eV
  | For reference only, the value of 1 Hartree used in FHI-aims is :             27.211384500 eV

  Before relying on these values, please be sure to understand exactly which
  total energy value is referred to by a given number. Different objects may
  all carry the same name 'total energy'. Definitions:

  Total energy of the DFT / Hartree-Fock s.c.f. calculation:
  | Note that this energy does not include ANY quantities calculated after the
  | s.c.f. cycle, in particular not ANY RPA, MP2, etc. many-body perturbation terms.

  Final zero-broadening corrected energy:
  | For metallic systems only, a broadening of the occupation numbers at the Fermi
  | level can be extrapolated back to zero broadening by an electron-gas inspired
  | formula. For all systems that are not real metals, this value can be
  | meaningless and should be avoided.

------------------------------------------------------------------------------
  Methods described in the following list of references were used in this FHI-aims run.
  If you publish the results, please make sure to cite these reference if they apply.
  FHI-aims is an academic code, and for our developers (often, Ph.D. students
  and postdocs), scientific credit in the community is essential.
  Thank you for helping us!

  For any use of FHI-aims, please cite:

    Volker Blum, Ralf Gehrke, Felix Hanke, Paula Havu, Ville Havu,
    Xinguo Ren, Karsten Reuter, and Matthias Scheffler
    'Ab initio molecular simulations with numeric atom-centered orbitals'
    Computer Physics Communications 180, 2175-2196 (2009)
    http://dx.doi.org/10.1016/j.cpc.2009.06.022


  The scalable eigensolver library ELPA was used in your run.
  ELPA is essential especially for large systems on hundreds or thousands of CPUs.
  For ELPA, please cite:

    Andreas Marek, Volker Blum, Rainer Johanni, Ville Havu, Bruno Lang,
    Thomas Auckenthaler, Alexander Heinecke, Hans-Joachim Bungartz, and Hermann Lederer,
    'The ELPA Library - Scalable Parallel Eigenvalue Solutions
    for Electronic Structure Theory and Computational Science'
    The Journal of Physics: Condensed Matter 26, 213201 (2014).
    http://dx.doi.org/10.1088/0953-8984/26/21/213201


  The ELSI infrastructure was used in your run to solve the Kohn-Sham electronic structure.
  Please check out http://elsi-interchange.org to learn more.
  If scalability is important for your project, please acknowledge ELSI by citing:

    V. W-z. Yu, F. Corsetti, A. Garcia, W. P. Huhn, M. Jacquelin, W. Jia,
    B. Lange, L. Lin, J. Lu, W. Mi, A. Seifitokaldani, A. Vazquez-Mayagoitia,
    C. Yang, H. Yang, and V. Blum
    'ELSI: A unified software interface for Kohn-Sham electronic structure solvers'
    Computer Physics Communications 222, 267-285 (2018).
    http://dx.doi.org/10.1016/j.cpc.2017.09.007


  For the real-space grid partitioning and parallelization used in this calculation, please cite:

    Ville Havu, Volker Blum, Paula Havu, and Matthias Scheffler,
    'Efficient O(N) integration for all-electron electronic structure calculation'
    'using numerically tabulated basis functions'
    Journal of Computational Physics 228, 8367-8379 (2009).
    http://dx.doi.org/10.1016/j.jcp.2009.08.008

  Of course, there are many other important community references, e.g., those cited in the
  above references. Our list is limited to references that describe implementations in the
  FHI-aims code. The reason is purely practical (length of this list) - please credit others as well.

------------------------------------------------------------
          Leaving FHI-aims.
          Date     :  20200805, Time     :  182450.700

          Computational steps:
          | Number of self-consistency cycles          :           16
          | Number of SCF (re)initializations          :            1

          Detailed time accounting                     :  max(cpu_time)    wall_clock(cpu1)
          | Total time                                 :       22.638 s          22.679 s
          | Preparation time                           :        0.144 s           0.144 s
          | Boundary condition initalization           :        0.000 s           0.001 s
          | Grid partitioning                          :        0.110 s           0.110 s
          | Preloading free-atom quantities on grid    :        0.002 s           0.003 s
          | Free-atom superposition energy             :        0.084 s           0.084 s
          | Total time for integrations                :        8.662 s           8.663 s
          | Total time for solution of K.-S. equations :        0.036 s           0.038 s
          | Total time for density & force components  :        7.111 s           7.133 s
          | Total time for mixing                      :        0.210 s           0.210 s
          | Total time for Hartree multipole update    :        0.140 s           0.141 s
          | Total time for Hartree multipole sum       :        5.741 s           5.744 s
          | Total time for total energy evaluation     :        0.003 s           0.004 s
          | Total time for vdW correction              :        0.090 s           0.090 s

          Partial memory accounting:
          | Residual value for overall tracked memory usage across tasks :           0.000 MB (should be 0.000 MB)
          | Peak values for overall tracked memory usage (after allocating hessian_basis_wave):
          |   Minimum:        1.612 MB (on task 1)
          |   Maximum:        1.612 MB (on task 1)
          |   Average:        1.612 MB
          | Largest tracked array allocation (hessian_basis_wave):
          |   Minimum:        0.788 MB (on task 1)
          |   Maximum:        0.788 MB (on task 1)
          |   Average:        0.788 MB
          Note:  These values currently only include a subset of arrays which are explicitly tracked.
          The "true" memory usage will be greater.

          Have a nice day.
------------------------------------------------------------
