  MPI-parallelism will be employed.
------------------------------------------------------------
          Invoking FHI-aims ...
          Version 171221_1
          Compiled on 2019/09/09 at 14:39:39 on host puhti-login2.bullx.

          When using FHI-aims, please cite the following reference:

          Volker Blum, Ralf Gehrke, Felix Hanke, Paula Havu,
          Ville Havu, Xinguo Ren, Karsten Reuter, and Matthias Scheffler,
          'Ab Initio Molecular Simulations with Numeric Atom-Centered Orbitals',
          Computer Physics Communications 180, 2175-2196 (2009)

          For any questions about FHI-aims, please visit the aimsclub website
          with its forums and wiki. Contributions to both the forums and the
          wiki are warmly encouraged - they are for you, and everyone is welcome there.

------------------------------------------------------------



  Date     :  20200902, Time     :  102220.825
  Time zero on CPU 1             :   0.110240000000000E-01  s.
  Internal wall clock time zero  :           368274140.825  s.

  FHI-aims created a unique identifier for this run for later identification
  aims_uuid : 491BBF45-E5C2-42DF-AC35-E383360F4B9F

  Using        1 parallel tasks.
  Task        0 on host r18c48.bullx reporting.

  Performing system and environment tests:
  | Environment variable OMP_NUM_THREADS correctly set to 1.
  | Stacksize not measured: no C compiler
  | Checking for scalapack...
  | Testing pdtran()...
  | All pdtran() tests passed.

  Obtaining array dimensions for all initial allocations:
  
  -----------------------------------------------------------------------
  Parsing control.in (first pass over file, find array dimensions only).
  The contents of control.in will be repeated verbatim below
  unless switched off by setting 'verbatim_writeout .false.' .
  in the first line of control.in .
  -----------------------------------------------------------------------
  
  #########################################################################################
  #
  #  Volker Blum, FHI 2009 : Test run input file control.in for simple H2O
  #
  #########################################################################################
  #
  #  Physical model
  #
    xc                 pbe
    vdw_correction_hirshfeld
    spin               none
    relativistic       none
    charge             0.
  #
  #  SCF convergence
  #
    occupation_type    gaussian 0.01
    mixer              pulay
      n_max_pulay        10
      charge_mix_param   0.2
    sc_accuracy_rho    1E-5
    sc_accuracy_eev    1E-3
    sc_accuracy_etot   1E-6
    sc_accuracy_forces 1E-4
    sc_iter_limit      100
  #
  #  Relaxation
  #
  #  relax_geometry   bfgs 1.e-3
  #
  ################################################################################
  #
  #  FHI-aims code project
  #  VB, Fritz-Haber Institut, 2009
  #
  #  Suggested "light" defaults for H atom (to be pasted into control.in file)
  #  Be sure to double-check any results obtained with these settings for post-processing,
  #  e.g., with the "tight" defaults and larger basis sets.
  #
  ################################################################################
    species        H
  #     global species definitions
      nucleus             1
      mass                1.00794
  #
      l_hartree           4
  #
      cut_pot             3.5  1.5  1.0
      basis_dep_cutoff    1e-4
  #
      radial_base         24 5.0
      radial_multiplier   1
      angular_grids       specified
        division   0.2421   50
        division   0.3822  110
        division   0.4799  194
        division   0.5341  302
  #      division   0.5626  434
  #      division   0.5922  590
  #      division   0.6542  770
  #      division   0.6868 1202
  #      outer_grid  770
        outer_grid  302
  ################################################################################
  #
  #  Definition of "minimal" basis
  #
  ################################################################################
  #     valence basis states
      valence      1  s   1.
  #     ion occupancy
      ion_occ      1  s   0.5
  ################################################################################
  #
  #  Suggested additional basis functions. For production calculations,
  #  uncomment them one after another (the most important basis functions are
  #  listed first).
  #
  #  Basis constructed for dimers: 0.5 A, 0.7 A, 1.0 A, 1.5 A, 2.5 A
  #
  ################################################################################
  #  "First tier" - improvements: -1014.90 meV to -62.69 meV
       hydro 2 s 2.1
       hydro 2 p 3.5
  #  "Second tier" - improvements: -12.89 meV to -1.83 meV
  #     hydro 1 s 0.85
  #     hydro 2 p 3.7
  #     hydro 2 s 1.2
  #     hydro 3 d 7
  #  "Third tier" - improvements: -0.25 meV to -0.12 meV
  #     hydro 4 f 11.2
  #     hydro 3 p 4.8
  #     hydro 4 d 9
  #     hydro 3 s 3.2
  ################################################################################
  #
  #  FHI-aims code project
  #  VB, Fritz-Haber Institut, 2009
  #
  #  Suggested "light" defaults for C atom (to be pasted into control.in file)
  #  Be sure to double-check any results obtained with these settings for post-processing,
  #  e.g., with the "tight" defaults and larger basis sets.
  #
  ################################################################################
    species        C
  #     global species definitions
      nucleus             6
      mass                12.0107
  #
      l_hartree           4
  #
      cut_pot             3.5  1.5  1.0
      basis_dep_cutoff    1e-4
  #
      radial_base         34 5.0
      radial_multiplier   1
      angular_grids specified
        division   0.3326   50
        division   0.5710  110
        division   0.7727  194
        division   0.8772  302
  #      division   0.9334  434
  #      division   0.9625  590
  #      division   0.9924  770
  #      division   1.0230  974
  #      division   1.4589 1202
  #     outer_grid  974
       outer_grid 302
  ################################################################################
  #
  #  Definition of "minimal" basis
  #
  ################################################################################
  #     valence basis states
      valence      2  s   2.
      valence      2  p   2.
  #     ion occupancy
      ion_occ      2  s   1.
      ion_occ      2  p   1.
  ################################################################################
  #
  #  Suggested additional basis functions. For production calculations,
  #  uncomment them one after another (the most important basis functions are
  #  listed first).
  #
  #  Constructed for dimers: 1.0 A, 1.25 A, 1.5 A, 2.0 A, 3.0 A
  #
  ################################################################################
  #  "First tier" - improvements: -1214.57 meV to -155.61 meV
       hydro 2 p 1.7
       hydro 3 d 6
       hydro 2 s 4.9
  #  "Second tier" - improvements: -67.75 meV to -5.23 meV
  #     hydro 4 f 9.8
  #     hydro 3 p 5.2
  #     hydro 3 s 4.3
  #     hydro 5 g 14.4
  #     hydro 3 d 6.2
  #  "Third tier" - improvements: -2.43 meV to -0.60 meV
  #     hydro 2 p 5.6
  #     hydro 2 s 1.4
  #     hydro 3 d 4.9
  #     hydro 4 f 11.2
  #  "Fourth tier" - improvements: -0.39 meV to -0.18 meV
  #     hydro 2 p 2.1
  #     hydro 5 g 16.4
  #     hydro 4 d 13.2
  #     hydro 3 s 13.6
  #     hydro 4 f 17.6
  #  Further basis functions - improvements: -0.08 meV and below
  #     hydro 3 s 2
  #     hydro 3 p 6
  #     hydro 4 d 20
  ################################################################################
  #
  #  FHI-aims code project
  #  VB, Fritz-Haber Institut, 2009
  #
  #  Suggested "light" defaults for N atom (to be pasted into control.in file)
  #  Be sure to double-check any results obtained with these settings for post-processing,
  #  e.g., with the "tight" defaults and larger basis sets.
  #
  ################################################################################
    species        N
  #     global species definitions
      nucleus             7
      mass                14.0067
  #
      l_hartree           4
  #
      cut_pot             3.5  1.5  1.0
      basis_dep_cutoff    1e-4
  #
      radial_base         35 5.0
      radial_multiplier   1
      angular_grids       specified
        division   0.2599   50
        division   0.4601  110
        division   0.5885  194
        division   0.6503  302
  #      division   0.6939  434
  #      division   0.7396  590
  #      division   0.7632  770
  #      division   0.8122  974
  #      division   1.1604 1202
  #      outer_grid  974
        outer_grid  302
  ################################################################################
  #
  #  Definition of "minimal" basis
  #
  ################################################################################
  #     valence basis states
      valence      2  s   2.
      valence      2  p   3.
  #     ion occupancy
      ion_occ      2  s   1.
      ion_occ      2  p   2.
  ################################################################################
  #
  #  Suggested additional basis functions. For production calculations,
  #  uncomment them one after another (the most important basis functions are
  #  listed first).
  #
  #  Constructed for dimers: 1.0 A, 1.1 A, 1.5 A, 2.0 A, 3.0 A
  #
  ################################################################################
  #  "First tier" - improvements: -1193.42 meV to -220.60 meV
       hydro 2 p 1.8
       hydro 3 d 6.8
       hydro 3 s 5.8
  #  "Second tier" - improvements: -80.21 meV to -6.86 meV
  #     hydro 4 f 10.8
  #     hydro 3 p 5.8
  #     hydro 1 s 0.8
  #     hydro 5 g 16
  #     hydro 3 d 4.9
  #  "Third tier" - improvements: -4.29 meV to -0.53 meV
  #     hydro 3 s 16
  #     ionic 2 p auto
  #     hydro 3 d 6.6
  #     hydro 4 f 11.6
  #  "Fourth tier" - improvements: -0.75 meV to -0.25 meV
  #     hydro 2 p 4.5
  #     hydro 2 s 2.4
  #     hydro 5 g 14.4
  #     hydro 4 d 14.4
  #     hydro 4 f 16.8
  # Further basis functions - -0.21 meV and below
  #     hydro 3 p 14.8
  #     hydro 3 s 4.4
  #     hydro 3 d 19.6
  #     hydro 5 g 12.8
  ################################################################################
  #
  #  FHI-aims code project
  #  VB, Fritz-Haber Institut, 2009
  #
  #  Suggested "light" defaults for O atom (to be pasted into control.in file)
  #  Be sure to double-check any results obtained with these settings for post-processing,
  #  e.g., with the "tight" defaults and larger basis sets.
  #
  ################################################################################
    species        O
  #     global species definitions
      nucleus             8
      mass                15.9994
  #
      l_hartree           4
  #
      cut_pot             3.5  1.5  1.0
      basis_dep_cutoff    1e-4
  #
      radial_base         36 5.0
      radial_multiplier   1
       angular_grids specified
        division   0.2659   50
        division   0.4451  110
        division   0.6052  194
        division   0.7543  302
  #      division   0.8014  434
  #      division   0.8507  590
  #      division   0.8762  770
  #      division   0.9023  974
  #      division   1.2339 1202
  #      outer_grid 974
        outer_grid 302
  ################################################################################
  #
  #  Definition of "minimal" basis
  #
  ################################################################################
  #     valence basis states
      valence      2  s   2.
      valence      2  p   4.
  #     ion occupancy
      ion_occ      2  s   1.
      ion_occ      2  p   3.
  ################################################################################
  #
  #  Suggested additional basis functions. For production calculations,
  #  uncomment them one after another (the most important basis functions are
  #  listed first).
  #
  #  Constructed for dimers: 1.0 A, 1.208 A, 1.5 A, 2.0 A, 3.0 A
  #
  ################################################################################
  #  "First tier" - improvements: -699.05 meV to -159.38 meV
       hydro 2 p 1.8
       hydro 3 d 7.6
       hydro 3 s 6.4
  #  "Second tier" - improvements: -49.91 meV to -5.39 meV
  #     hydro 4 f 11.6
  #     hydro 3 p 6.2
  #     hydro 3 d 5.6
  #     hydro 5 g 17.6
  #     hydro 1 s 0.75
  #  "Third tier" - improvements: -2.83 meV to -0.50 meV
  #     ionic 2 p auto
  #     hydro 4 f 10.8
  #     hydro 4 d 4.7
  #     hydro 2 s 6.8
  #  "Fourth tier" - improvements: -0.40 meV to -0.12 meV
  #     hydro 3 p 5
  #     hydro 3 s 3.3
  #     hydro 5 g 15.6
  #     hydro 4 f 17.6
  #     hydro 4 d 14
  # Further basis functions - -0.08 meV and below
  #     hydro 3 s 2.1
  #     hydro 4 d 11.6
  #     hydro 3 p 16
  #     hydro 2 s 17.2
  
  -----------------------------------------------------------------------
  Completed first pass over input file control.in .
  -----------------------------------------------------------------------
  
  
  -----------------------------------------------------------------------
  Parsing geometry.in (first pass over file, find array dimensions only).
  The contents of geometry.in will be repeated verbatim below
  unless switched off by setting 'verbatim_writeout .false.' .
  in the first line of geometry.in .
  -----------------------------------------------------------------------
  
  atom  0.00000 0.00000 0.00000 C
  atom  1.09300 0.00000 0.00000 H
  atom  -0.47961 0.00000 -1.41207 N
  atom  0.33062 0.01320 -2.03270 H
  atom  -1.03028 -0.84135 -1.57023 H
  atom  -0.49584 1.26211 0.72868 C
  atom  -1.58789 1.28919 0.74431 H
  atom  -0.13407 1.27425 1.75947 H
  atom  -0.13407 2.16087 0.22380 H
  atom  -0.39425 -1.28861 0.74398 C
  atom  -0.10189 -1.56493 1.88303 O
  atom  -1.10210 -2.13717 0.06896 O
  atom  -1.19562 -2.82053 0.75399 H
  
  -----------------------------------------------------------------------
  Completed first pass over input file geometry.in .
  -----------------------------------------------------------------------
  

  Basic array size parameters:
  | Number of species                 :        4
  | Number of atoms                   :       13
  | Max. basis fn. angular momentum   :        2
  | Max. atomic/ionic basis occupied n:        2
  | Max. number of basis fn. types    :        2
  | Max. radial fns per species/type  :        3
  | Max. logarithmic grid size        :     1301
  | Max. radial integration grid size :       36
  | Max. angular integration grid size:      302
  | Max. angular grid division number :        8
  | Radial grid for Hartree potential :     1301
  | Number of spin channels           :        1

------------------------------------------------------------
          Reading file control.in.
------------------------------------------------------------
  XC: Using PBE gradient-corrected functionals.
  Spin treatment: No spin polarisation.
  Non-relativistic treatment of kinetic energy.
  Charge =   0.000000E+00: Neutral system requested explicitly.
  Occupation type: Gaussian broadening, width =   0.100000E-01 eV.
  Using pulay charge density mixing.
  Pulay mixing - number of memorized iterations:   10
  Charge density mixing - mixing parameter:     0.2000
  Convergence accuracy of self-consistent charge density:  0.1000E-04
  Convergence accuracy of sum of eigenvalues:  0.1000E-02
  Convergence accuracy of total energy:  0.1000E-05
  Convergence accuracy of forces:  0.1000E-03
  Maximum number of s.-c. iterations  :   100
 
  Reading configuration options for species H                   .
  | Found nuclear charge :   1.0000
  | Found atomic mass :    1.00794000000000      amu
  | Found l_max for Hartree potential  :   4
  | Found cutoff potl. onset [A], width [A], scale factor :    3.50000    1.50000    1.00000
  | Threshold for basis-dependent cutoff potential is   0.100000E-03
  | Found data for basic radial integration grid :    24 points, outermost radius =    5.000 A
  | Found multiplier for basic radial grid :   1
  | Found angular grid specification: user-specified.
  | Specified grid contains     5 separate shells.
  | Check grid settings after all constraints further below.
  | Found free-atom valence shell :  1 s   1.000
  | No ionic wave fns used. Skipping ion_occ.
  | Found hydrogenic basis function :  2 s   2.100
  | Found hydrogenic basis function :  2 p   3.500
  Species H                   : Missing cutoff potential type.
  Defaulting to exp(1/x)/(1-x)^2 type cutoff potential.
  Species H : No 'logarithmic' tag. Using default grid for free atom:
  | Default logarithmic grid data [bohr] : 0.1000E-03 0.1000E+03 0.1012E+01
  Species H : On-site basis accuracy parameter (for Gram-Schmidt orthonormalisation) not specified.
  Using default value basis_acc =  0.1000000E-03.
  Species H                   : Using default innermost maximum threshold i_radial=  2 for radial functions.
  Species H                   : Default cutoff onset for free atom density etc. : 0.35000000E+01 AA.
  Species H                   : Basic radial grid will be enhanced according to radial_multiplier =   1, to contain    24 grid points.
 
  Reading configuration options for species C                   .
  | Found nuclear charge :   6.0000
  | Found atomic mass :    12.0107000000000      amu
  | Found l_max for Hartree potential  :   4
  | Found cutoff potl. onset [A], width [A], scale factor :    3.50000    1.50000    1.00000
  | Threshold for basis-dependent cutoff potential is   0.100000E-03
  | Found data for basic radial integration grid :    34 points, outermost radius =    5.000 A
  | Found multiplier for basic radial grid :   1
  | Found angular grid specification: user-specified.
  | Specified grid contains     5 separate shells.
  | Check grid settings after all constraints further below.
  | Found free-atom valence shell :  2 s   2.000
  | Found free-atom valence shell :  2 p   2.000
  | No ionic wave fns used. Skipping ion_occ.
  | No ionic wave fns used. Skipping ion_occ.
  | Found hydrogenic basis function :  2 p   1.700
  | Found hydrogenic basis function :  3 d   6.000
  | Found hydrogenic basis function :  2 s   4.900
  Species C                   : Missing cutoff potential type.
  Defaulting to exp(1/x)/(1-x)^2 type cutoff potential.
  Species C : No 'logarithmic' tag. Using default grid for free atom:
  | Default logarithmic grid data [bohr] : 0.1000E-03 0.1000E+03 0.1012E+01
  Species C : On-site basis accuracy parameter (for Gram-Schmidt orthonormalisation) not specified.
  Using default value basis_acc =  0.1000000E-03.
  Species C                   : Using default innermost maximum threshold i_radial=  2 for radial functions.
  Species C                   : Default cutoff onset for free atom density etc. : 0.35000000E+01 AA.
  Species C                   : Basic radial grid will be enhanced according to radial_multiplier =   1, to contain    34 grid points.
 
  Reading configuration options for species N                   .
  | Found nuclear charge :   7.0000
  | Found atomic mass :    14.0067000000000      amu
  | Found l_max for Hartree potential  :   4
  | Found cutoff potl. onset [A], width [A], scale factor :    3.50000    1.50000    1.00000
  | Threshold for basis-dependent cutoff potential is   0.100000E-03
  | Found data for basic radial integration grid :    35 points, outermost radius =    5.000 A
  | Found multiplier for basic radial grid :   1
  | Found angular grid specification: user-specified.
  | Specified grid contains     5 separate shells.
  | Check grid settings after all constraints further below.
  | Found free-atom valence shell :  2 s   2.000
  | Found free-atom valence shell :  2 p   3.000
  | No ionic wave fns used. Skipping ion_occ.
  | No ionic wave fns used. Skipping ion_occ.
  | Found hydrogenic basis function :  2 p   1.800
  | Found hydrogenic basis function :  3 d   6.800
  | Found hydrogenic basis function :  3 s   5.800
  Species N                   : Missing cutoff potential type.
  Defaulting to exp(1/x)/(1-x)^2 type cutoff potential.
  Species N : No 'logarithmic' tag. Using default grid for free atom:
  | Default logarithmic grid data [bohr] : 0.1000E-03 0.1000E+03 0.1012E+01
  Species N : On-site basis accuracy parameter (for Gram-Schmidt orthonormalisation) not specified.
  Using default value basis_acc =  0.1000000E-03.
  Species N                   : Using default innermost maximum threshold i_radial=  2 for radial functions.
  Species N                   : Default cutoff onset for free atom density etc. : 0.35000000E+01 AA.
  Species N                   : Basic radial grid will be enhanced according to radial_multiplier =   1, to contain    35 grid points.
 
  Reading configuration options for species O                   .
  | Found nuclear charge :   8.0000
  | Found atomic mass :    15.9994000000000      amu
  | Found l_max for Hartree potential  :   4
  | Found cutoff potl. onset [A], width [A], scale factor :    3.50000    1.50000    1.00000
  | Threshold for basis-dependent cutoff potential is   0.100000E-03
  | Found data for basic radial integration grid :    36 points, outermost radius =    5.000 A
  | Found multiplier for basic radial grid :   1
  | Found angular grid specification: user-specified.
  | Specified grid contains     5 separate shells.
  | Check grid settings after all constraints further below.
  | Found free-atom valence shell :  2 s   2.000
  | Found free-atom valence shell :  2 p   4.000
  | No ionic wave fns used. Skipping ion_occ.
  | No ionic wave fns used. Skipping ion_occ.
  | Found hydrogenic basis function :  2 p   1.800
  | Found hydrogenic basis function :  3 d   7.600
  | Found hydrogenic basis function :  3 s   6.400
  Species O                   : Missing cutoff potential type.
  Defaulting to exp(1/x)/(1-x)^2 type cutoff potential.
  Species O : No 'logarithmic' tag. Using default grid for free atom:
  | Default logarithmic grid data [bohr] : 0.1000E-03 0.1000E+03 0.1012E+01
  Species O : On-site basis accuracy parameter (for Gram-Schmidt orthonormalisation) not specified.
  Using default value basis_acc =  0.1000000E-03.
  Species O                   : Using default innermost maximum threshold i_radial=  2 for radial functions.
  Species O                   : Default cutoff onset for free atom density etc. : 0.35000000E+01 AA.
  Species O                   : Basic radial grid will be enhanced according to radial_multiplier =   1, to contain    36 grid points.
 
  Finished reading input file 'control.in'. Consistency checks are next.
 
  MPI_IN_PLACE appears to work with this MPI implementation.
  | Keeping use_mpi_in_place .true. (see manual).
  Target number of points in a grid batch is not set. Defaulting to  100
  Method for grid partitioning is not set. Defaulting to parallel hash+maxmin partitioning.
  Batch size limit is not set. Defaulting to    200
  By default, will store active basis functions for each batch.
  If in need of memory, prune_basis_once .false. can be used to disable this option.
  communication_type for Hartree potential was not specified.
  Defaulting to calc_hartree .
  Pulay mixer: Number of initial linear mixing iterations not set.
  Defaulting to    0 iterations.
  Work space size for distributed Hartree potential not set.
  Defaulting to   0.200000E+03 MB.
  Algorithm-dependent basis array size parameters:
  | n_max_pulay                         :       10
  Presetting      1001 iterations before the initial mixing cycle
  is restarted anyway using the sc_init_iter criterion / keyword.
  Presetting a factor      1.000 between actual scf density residual
  and density convergence criterion sc_accuracy_rho below which sc_init_iter
  takes no effect.
  Geometry relaxation not requested: no relaxation will be performed.
  Handling of forces: Unphysical translation and rotation will be removed from forces.
  No accuracy limit for integral partition fn. given. Defaulting to  0.1000E-14.
  No threshold value for u(r) in integrations given. Defaulting to  0.1000E-05.
  No accuracy for occupation numbers given. Defaulting to  0.1000E-12.
  No threshold value for occupation numbers given. Defaulting to  0.0000E+00.
  No accuracy for fermi level given. Defaulting to  0.1000E-19.
  Maximum # of iterations to find E_F not set. Defaulting to  200.
  Preferred method for the eigenvalue solver ('KS_method') not specified in 'control.in'.
  Defaulting to serial version, 'lapack_fast'.
  Will not use alltoall communication since running on < 1024 CPUs.
  Threshold for basis singularities not set.
  Default threshold for basis singularities:  0.1000E-04
  partition_type (choice of integration weights) for integrals was not specified.
  | Using a version of the partition function of Stratmann and coworkers ('stratmann_smoother').
  | At each grid point, the set of atoms used to build the partition table is smoothly restricted to
  | only those atoms whose free-atom density would be non-zero at that grid point.
  Partitioning for Hartree potential was not defined. Using partition_type for integrals.
  | Adjusted default value of keyword multip_moments_threshold to:       0.10000000E-11
  | This value may affect high angular momentum components of the Hartree potential in periodic systems.
  No q(lm)/r^(l+1) cutoff set for long-range Hartree potential.
  | Using default value of  0.100000E-09 .
  | Verify using the multipole_threshold keyword.
  Defaulting to new monopole extrapolation.
  Density update method: automatic selection selected.
------------------------------------------------------------


------------------------------------------------------------
          Reading geometry description geometry.in.
------------------------------------------------------------
  Input structure read successfully.
  The structure contains       13 atoms,  and a total of         48.000 electrons.

  Input geometry:
  | No unit cell requested.
  | Atomic structure:
  |       Atom                x [A]            y [A]            z [A]
  |    1: Species C             0.00000000        0.00000000        0.00000000
  |    2: Species H             1.09300000        0.00000000        0.00000000
  |    3: Species N            -0.47961000        0.00000000       -1.41207000
  |    4: Species H             0.33062000        0.01320000       -2.03270000
  |    5: Species H            -1.03028000       -0.84135000       -1.57023000
  |    6: Species C            -0.49584000        1.26211000        0.72868000
  |    7: Species H            -1.58789000        1.28919000        0.74431000
  |    8: Species H            -0.13407000        1.27425000        1.75947000
  |    9: Species H            -0.13407000        2.16087000        0.22380000
  |   10: Species C            -0.39425000       -1.28861000        0.74398000
  |   11: Species O            -0.10189000       -1.56493000        1.88303000
  |   12: Species O            -1.10210000       -2.13717000        0.06896000
  |   13: Species H            -1.19562000       -2.82053000        0.75399000
  |

  | The smallest distance between any two atoms is         0.97210749 AA.
  |
  | The first atom of this pair is atom number                     12 .
  | The second atom of this pair is atom number                    13 .

  Number of empty states per atom not set in control.in - providing a guess from actual geometry.
  | Total number of empty states used during s.c.f. cycle:       29
  If you use a very high smearing, use empty_states (per atom!) in control.in to increase this value.

  Structure-dependent array size parameters: 
  | Maximum number of distinct radial functions  :       21
  | Maximum number of basis functions            :      119
  | Number of Kohn-Sham states (occupied + empty):       53
------------------------------------------------------------

------------------------------------------------------------
          Preparing all fixed parts of the calculation.
------------------------------------------------------------
  Determining machine precision:
    2.225073858507201E-308
  Setting up grids for atomic and cluster calculations.

  Creating wave function, potential, and density for free atoms.

  Species: H

  List of occupied orbitals and eigenvalues:
    n    l              occ      energy [Ha]    energy [eV]
    1    0           1.0000        -0.237589        -6.4651


  Species: C

  List of occupied orbitals and eigenvalues:
    n    l              occ      energy [Ha]    energy [eV]
    1    0           2.0000       -10.038835      -273.1706
    2    0           2.0000        -0.502696       -13.6791
    2    1           2.0000        -0.191971        -5.2238


  Species: N

  List of occupied orbitals and eigenvalues:
    n    l              occ      energy [Ha]    energy [eV]
    1    0           2.0000       -14.128000      -384.4424
    2    0           2.0000        -0.681077       -18.5330
    2    1           3.0000        -0.259788        -7.0692


  Species: O

  List of occupied orbitals and eigenvalues:
    n    l              occ      energy [Ha]    energy [eV]
    1    0           2.0000       -18.898188      -514.2459
    2    0           2.0000        -0.878505       -23.9053
    2    1           4.0000        -0.331779        -9.0282

  Creating fixed part of basis set: Ionic, confined, hydrogenic.
 
  H                    hydrogenic:
 
  List of hydrogenic basis orbitals: 
    n    l      effective z      eigenvalue [eV]  inner max. [A]     outer max. [A]     outer radius [A]   
    2    0         2.100000       -14.9728           0.193243           1.317208           4.583499
    2    1         3.500000       -41.6669           0.602369           0.602369           3.723403
 
 
  C                    hydrogenic:
 
  List of hydrogenic basis orbitals: 
    n    l      effective z      eigenvalue [eV]  inner max. [A]     outer max. [A]     outer radius [A]   
    2    1         1.700000        -9.7616           1.230570           1.230570           4.607917
    3    2         6.000000       -54.4224           0.792453           0.792453           3.883070
    2    0         4.900000       -81.6679           0.082559           0.562749           3.078220
 
 
  N                    hydrogenic:
 
  List of hydrogenic basis orbitals: 
    n    l      effective z      eigenvalue [eV]  inner max. [A]     outer max. [A]     outer radius [A]   
    2    1         1.800000       -10.9749           1.177451           1.177451           4.573712
    3    2         6.800000       -69.9026           0.704619           0.704619           3.538137
    3    0         5.800000       -50.8545           0.067388           1.191934           4.250239
 
 
  O                    hydrogenic:
 
  List of hydrogenic basis orbitals: 
    n    l      effective z      eigenvalue [eV]  inner max. [A]     outer max. [A]     outer radius [A]   
    2    1         1.800000       -10.9749           1.164242           1.164242           4.578029
    3    2         7.600000       -87.3180           0.624125           0.624125           3.251020
    3    0         6.400000       -61.9207           0.061167           1.081902           4.001998
 

  Adding cutoff potential to free-atom effective potential.
  Creating atomic-like basis functions for current effective potential.

  Species H                   :

  List of atomic basis orbitals and eigenvalues:
    n    l      energy [Ha]    energy [eV]    outer radius [A]
    1    0        -0.237589        -6.4651       4.527807


  Species C                   :

  List of atomic basis orbitals and eigenvalues:
    n    l      energy [Ha]    energy [eV]    outer radius [A]
    1    0       -10.038835      -273.1706       1.934409
    2    0        -0.502696       -13.6791       4.496620
    2    1        -0.191971        -5.2238       4.551928


  Species N                   :

  List of atomic basis orbitals and eigenvalues:
    n    l      energy [Ha]    energy [eV]    outer radius [A]
    1    0       -14.128000      -384.4424       1.637919
    2    0        -0.681077       -18.5330       4.463241
    2    1        -0.259788        -7.0692       4.518138


  Species O                   :

  List of atomic basis orbitals and eigenvalues:
    n    l      energy [Ha]    energy [eV]    outer radius [A]
    1    0       -18.898188      -514.2459       1.415765
    2    0        -0.878505       -23.9053       4.413171
    2    1        -0.331779        -9.0282       4.522403

  Assembling full basis from fixed parts.
  | Species H :   atomic orbital   1 s accepted.
  | Species H :    hydro orbital   2 s accepted.
  | Species H :    hydro orbital   2 p accepted.
  | Species C :   atomic orbital   1 s accepted.
  | Species C :    hydro orbital   2 s accepted.
  | Species C :   atomic orbital   2 s accepted.
  | Species C :   atomic orbital   2 p accepted.
  | Species C :    hydro orbital   2 p accepted.
  | Species C :    hydro orbital   3 d accepted.
  | Species N :   atomic orbital   1 s accepted.
  | Species N :    hydro orbital   3 s accepted.
  | Species N :   atomic orbital   2 s accepted.
  | Species N :   atomic orbital   2 p accepted.
  | Species N :    hydro orbital   2 p accepted.
  | Species N :    hydro orbital   3 d accepted.
  | Species O :   atomic orbital   1 s accepted.
  | Species O :    hydro orbital   3 s accepted.
  | Species O :   atomic orbital   2 s accepted.
  | Species O :   atomic orbital   2 p accepted.
  | Species O :    hydro orbital   2 p accepted.
  | Species O :    hydro orbital   3 d accepted.
 
  Basis size parameters after reduction:
  | Total number of radial functions:       21
  | Total number of basis functions :      119
 
  Per-task memory consumption for arrays in subroutine allocate_ext:
  |           5.250512MB.
  Testing on-site integration grid accuracy.
  |  Species  Function  <phi|h_atom|phi> (log., in eV)  <phi|h_atom|phi> (rad., in eV)
           1        1                 -6.4663192853                 -6.4651273558
           1        2                 13.7111246313                 13.7170609718
           1        3                 25.2673269279                 25.2674696378
           2        4               -273.1705927641               -273.1705631568
           2        5                -10.7109323383                -10.7107120029
           2        6                 17.4381822266                 17.4352413244
           2        7                 -5.2255326521                 -5.2270484734
           2        8                  8.6835629259                  8.6603288385
           2        9                 27.4952418996                 27.4953360207
           3       10               -384.4424306495               -384.4423701208
           3       11                 12.5842251816                 12.5842222903
           3       12                -15.7264628251                -15.7264433455
           3       13                 -7.0696854293                 -7.0701769954
           3       14                  8.8090390882                  8.7901077751
           3       15                 35.9586762123                 35.9588528632
           4       16               -514.2458688638               -514.2457643834
           4       17                 15.1795651126                 15.1795290741
           4       18                -21.5359799773                -21.5360846186
           4       19                 -9.0283069236                 -9.0284644067
           4       20                  8.3027758564                  8.2834874195
           4       21                 45.8339351984                 45.8338762259

  Preparing densities etc. for the partition functions (integrals / Hartree potential).

  Preparations completed.
  max(cpu_time)          :      0.146 s.
  Wall clock time (cpu1) :      0.147 s.
------------------------------------------------------------

------------------------------------------------------------
          Begin self-consistency loop: Initialization.

          Date     :  20200902, Time     :  102220.991
------------------------------------------------------------

  Initializing index lists of integration centers etc. from given atomic structure:
  | Number of centers in hartree potential         :        13
  | Number of centers in hartree multipole         :        13
  | Number of centers in electron density summation:        13
  | Number of centers in basis integrals           :        13
  | Number of centers in integrals                 :        13
  | Number of centers in hamiltonian               :        13
  Partitioning the integration grid into batches with parallel hashing+maxmin method.
  | Number of batches:      951
  | Maximal batch size:     139
  | Minimal batch size:      66
  | Average batch size:      73.234
  | Standard deviation of batch sizes:      18.095

  Integration load balanced across     1 MPI tasks.
  Work distribution over tasks is as follows:
  Task     0 has      69646 integration points.
  Initializing partition tables, free-atom densities, potentials, etc. across the integration grid (initialize_grid_storage).
  | initialize_grid_storage: Actual outermost partition radius vs. multipole_radius_free
  | (-- VB: in principle, multipole_radius_free should be larger, hence this output)
  | Species        1: Confinement radius =              4.999999999999999 AA, multipole_radius_free =              5.054417573612229 AA.
  | Species        1: outer_partition_radius set to              5.054417573612229 AA .
  | Species        2: Confinement radius =              4.999999999999999 AA, multipole_radius_free =              5.019602836301480 AA.
  | Species        2: outer_partition_radius set to              5.019602836301480 AA .
  | Species        3: Confinement radius =              4.999999999999999 AA, multipole_radius_free =              5.043624274424571 AA.
  | Species        3: outer_partition_radius set to              5.043624274424571 AA .
  | Species        4: Confinement radius =              4.999999999999999 AA, multipole_radius_free =              5.048384829883283 AA.
  | Species        4: outer_partition_radius set to              5.048384829883283 AA .
  | Original list of interatomic distances with          13 x         13 entries is created.
  | Net number of integration points:    69646
  | of which are non-zero points    :    59684
  Renormalizing the initial density to the exact electron count on the 3D integration grid.
  | Initial density: Formal number of electrons (from input files) :      48.0000000000
  | Integrated number of electrons on 3D grid     :      48.0000095118
  | Charge integration error                      :       0.0000095118
  | Normalization factor for density and gradient :       0.9999998018
  Obtaining max. number of non-zero basis functions in each batch (get_n_compute_maxes).
  | Maximal number of non-zero basis functions:      119 in task     0
  Selecting the method for density update.
  Loop over occupied states selected for charge density update.
  Allocating        0.050 MB for KS_eigenvector
  Integrating Hamiltonian matrix: batch-based integration.
  Time summed over all CPUs for integration: real work        0.491 s, elapsed        0.491 s
  Integrating overlap matrix.
  Time summed over all CPUs for integration: real work        0.210 s, elapsed        0.210 s

  Updating Kohn-Sham eigenvalues and eigenvectors using ELSI and the ELPA eigensolver.
  Overlap matrix is nonsingular
  | Lowest eigenvalue of overlap  :  0.45E-02
  | Highest eigenvalue of overlap :  0.60E+01
  Finished singularity check of overlap matrix
  | Time :     0.002 s
  Finished Cholesky decomposition
  | Time :     0.000 s
  Finished transformation to standard eigenproblem
  | Time :     0.000 s
  Starting LAPACK eigensolver
  Finished solving standard eigenproblem
  | Time :     0.002 s
  Finished back-transformation of eigenvectors
  | Time :     0.000 s

  Obtaining occupation numbers and chemical potential using ELSI.
  | Chemical potential (Fermi level):    -9.95781034eV
  Writing Kohn-Sham eigenvalues.

  State    Occupation    Eigenvalue [Ha]    Eigenvalue [eV]
      1       2.00000         -19.008468         -517.24673
      2       2.00000         -18.978371         -516.42775
      3       2.00000         -14.245787         -387.64759
      4       2.00000         -10.166581         -276.64676
      5       2.00000         -10.141235         -275.95703
      6       2.00000         -10.132157         -275.71002
      7       2.00000          -1.189099          -32.35704
      8       2.00000          -1.093549          -29.75698
      9       2.00000          -0.991132          -26.97007
     10       2.00000          -0.861869          -23.45266
     11       2.00000          -0.758914          -20.65109
     12       2.00000          -0.684162          -18.61699
     13       2.00000          -0.621200          -16.90370
     14       2.00000          -0.608817          -16.56674
     15       2.00000          -0.591058          -16.08351
     16       2.00000          -0.558588          -15.19996
     17       2.00000          -0.547509          -14.89848
     18       2.00000          -0.531789          -14.47071
     19       2.00000          -0.516674          -14.05941
     20       2.00000          -0.502028          -13.66087
     21       2.00000          -0.477110          -12.98282
     22       2.00000          -0.429589          -11.68971
     23       2.00000          -0.410493          -11.17008
     24       2.00000          -0.386325          -10.51245
     25       0.00000          -0.148409           -4.03840
     26       0.00000          -0.057842           -1.57396
     27       0.00000          -0.027789           -0.75617
     28       0.00000          -0.022726           -0.61840
     29       0.00000           0.004692            0.12767
     30       0.00000           0.011424            0.31086
     31       0.00000           0.023764            0.64665
     32       0.00000           0.027163            0.73914
     33       0.00000           0.040241            1.09502
     34       0.00000           0.070099            1.90748
     35       0.00000           0.087763            2.38816
     36       0.00000           0.132504            3.60561
     37       0.00000           0.154687            4.20925
     38       0.00000           0.195225            5.31235
     39       0.00000           0.212050            5.77018
     40       0.00000           0.220160            5.99086
     41       0.00000           0.263485            7.16979
     42       0.00000           0.279329            7.60093
     43       0.00000           0.300968            8.18977
     44       0.00000           0.307605            8.37037
     45       0.00000           0.337898            9.19467
     46       0.00000           0.354667            9.65098
     47       0.00000           0.379871           10.33681
     48       0.00000           0.411329           11.19284
     49       0.00000           0.447693           12.18235
     50       0.00000           0.461286           12.55222
     51       0.00000           0.511033           13.90592
     52       0.00000           0.532217           14.48236
     53       0.00000           0.550903           14.99082

  Highest occupied state (VBM) at    -10.51245156 eV
  | Occupation number:      2.00000000

  Lowest unoccupied state (CBM) at    -4.03840150 eV
  | Occupation number:      0.00000000

  Overall HOMO-LUMO gap:      6.47405006 eV.
  Calculating total energy contributions from superposition of free atom densities.

  Total energy components:
  | Sum of eigenvalues            :        -188.86500622 Ha       -5139.27830286 eV
  | XC energy correction          :         -41.79082661 Ha       -1137.18625143 eV
  | XC potential correction       :          53.72284541 Ha        1461.87300285 eV
  | Free-atom electrostatic energy:        -146.84172897 Ha       -3995.76674752 eV
  | Hartree energy correction     :           0.00000000 Ha           0.00000000 eV
  | vdW energy correction         :           0.00000000 Ha           0.00000000 eV
  | Entropy correction            :           0.00000000 Ha           0.00000000 eV
  | ---------------------------
  | Total energy                  :        -323.77471639 Ha       -8810.35829896 eV
  | Total energy, T -> 0          :        -323.77471639 Ha       -8810.35829896 eV  <-- do not rely on this value for anything but (periodic) metals
  | Electronic free energy        :        -323.77471639 Ha       -8810.35829896 eV

  Derived energy quantities:
  | Kinetic energy                :         320.48753102 Ha        8720.90943416 eV
  | Electrostatic energy          :        -602.47142080 Ha      -16394.08148169 eV
  | Energy correction for multipole
  | error in Hartree potential    :           0.00000000 Ha           0.00000000 eV
  | Sum of eigenvalues per atom                           :        -395.32910022 eV
  | Total energy (T->0) per atom                          :        -677.71986915 eV  <-- do not rely on this value for anything but (periodic) metals
  | Electronic free energy per atom                       :        -677.71986915 eV
  Initialize hartree_potential_storage
  Max. number of atoms included in rho_multipole:           13

  End scf initialization - timings             :  max(cpu_time)    wall_clock(cpu1)
  | Time for scf. initialization               :        1.144 s           1.145 s
  | Boundary condition initialization          :        0.000 s           0.000 s
  | Integration                                :        0.701 s           0.701 s
  | Solution of K.-S. eqns.                    :        0.004 s           0.004 s
  | Grid partitioning                          :        0.111 s           0.111 s
  | Preloading free-atom quantities on grid    :        0.002 s           0.002 s
  | Free-atom superposition energy             :        0.085 s           0.085 s
  | Total energy evaluation                    :        0.000 s           0.000 s

  Partial memory accounting:
  | Current value for overall tracked memory usage on task 0  :           0.165 MB
  | Peak value for overall tracked memory usage on task 0     :           0.678 MB after allocating wave
  | Largest tracked array allocation on task 0 so far         :           0.132 MB  when allocating H_times_psi
  Note:  These values currently only include a subset of arrays which are explicitly tracked.
  The "true" memory usage will be greater.
------------------------------------------------------------

------------------------------------------------------------
          Begin self-consistency iteration #    1

  Date     :  20200902, Time     :  102222.136
------------------------------------------------------------
  Evaluating new KS density.
  Integration grid: deviation in total charge (<rho> - N_e) =  -7.105427E-15
  Pulay mixing of updated and previous charge densities.

  Evaluating partitioned Hartree potential by multipole expansion.
  | Analytical far-field extrapolation by fixed multipoles:
  | Hartree multipole sum: apparent total charge =  -0.989910E-04
  Summing up the Hartree potential.
  Time summed over all CPUs for potential: real work        0.283 s, elapsed        0.283 s
  | RMS charge density error from multipole expansion :   0.594323E-02

  Integrating Hamiltonian matrix: batch-based integration.
  Time summed over all CPUs for integration: real work        0.500 s, elapsed        0.500 s

  Updating Kohn-Sham eigenvalues and eigenvectors using ELSI and the ELPA eigensolver.
  Finished Cholesky decomposition
  | Time :     0.000 s
  Finished transformation to standard eigenproblem
  | Time :     0.000 s
  Starting LAPACK eigensolver
  Finished solving standard eigenproblem
  | Time :     0.002 s
  Finished back-transformation of eigenvectors
  | Time :     0.000 s

  Obtaining occupation numbers and chemical potential using ELSI.
  | Chemical potential (Fermi level):    -4.79180487eV
  Writing Kohn-Sham eigenvalues.

  State    Occupation    Eigenvalue [Ha]    Eigenvalue [eV]
      1       2.00000         -18.913049         -514.65025
      2       2.00000         -18.839454         -512.64762
      3       2.00000         -14.093692         -383.50888
      4       2.00000         -10.117021         -275.29814
      5       2.00000         -10.061571         -273.78929
      6       2.00000         -10.026386         -272.83184
      7       2.00000          -1.143486          -31.11584
      8       2.00000          -1.033395          -28.12012
      9       2.00000          -0.919969          -25.03363
     10       2.00000          -0.793312          -21.58713
     11       2.00000          -0.708805          -19.28756
     12       2.00000          -0.636939          -17.33199
     13       2.00000          -0.567309          -15.43727
     14       2.00000          -0.544817          -14.82522
     15       2.00000          -0.532487          -14.48971
     16       2.00000          -0.503368          -13.69733
     17       2.00000          -0.487607          -13.26847
     18       2.00000          -0.472101          -12.84651
     19       2.00000          -0.453458          -12.33922
     20       2.00000          -0.440194          -11.97828
     21       2.00000          -0.424684          -11.55623
     22       2.00000          -0.370725          -10.08794
     23       2.00000          -0.340899           -9.27635
     24       2.00000          -0.310309           -8.44395
     25       0.00000          -0.112582           -3.06350
     26       0.00000          -0.032502           -0.88443
     27       0.00000          -0.002949           -0.08024
     28       0.00000           0.016636            0.45270
     29       0.00000           0.035152            0.95653
     30       0.00000           0.055134            1.50029
     31       0.00000           0.064000            1.74153
     32       0.00000           0.073555            2.00154
     33       0.00000           0.081009            2.20438
     34       0.00000           0.108270            2.94618
     35       0.00000           0.127477            3.46882
     36       0.00000           0.161159            4.38535
     37       0.00000           0.179358            4.88057
     38       0.00000           0.219543            5.97406
     39       0.00000           0.239660            6.52147
     40       0.00000           0.263243            7.16320
     41       0.00000           0.300017            8.16389
     42       0.00000           0.311160            8.46710
     43       0.00000           0.344651            9.37844
     44       0.00000           0.345567            9.40335
     45       0.00000           0.375514           10.21826
     46       0.00000           0.389679           10.60371
     47       0.00000           0.420189           11.43392
     48       0.00000           0.449634           12.23517
     49       0.00000           0.487154           13.25614
     50       0.00000           0.494553           13.45748
     51       0.00000           0.545288           14.83805
     52       0.00000           0.571648           15.55533
     53       0.00000           0.585569           15.93415

  Highest occupied state (VBM) at     -8.44394944 eV
  | Occupation number:      2.00000000

  Lowest unoccupied state (CBM) at    -3.06350496 eV
  | Occupation number:      0.00000000

  Overall HOMO-LUMO gap:      5.38044448 eV.

  Total energy components:
  | Sum of eigenvalues            :        -185.47007490 Ha       -5046.89752132 eV
  | XC energy correction          :         -42.11832686 Ha       -1146.09798681 eV
  | XC potential correction       :          54.14879633 Ha        1473.46371719 eV
  | Free-atom electrostatic energy:        -146.84172897 Ha       -3995.76674752 eV
  | Hartree energy correction     :          -3.31317937 Ha         -90.15619775 eV
  | vdW energy correction         :           0.00000000 Ha           0.00000000 eV
  | Entropy correction            :           0.00000000 Ha           0.00000000 eV
  | ---------------------------
  | Total energy                  :        -323.59451377 Ha       -8805.45473620 eV
  | Total energy, T -> 0          :        -323.59451377 Ha       -8805.45473620 eV  <-- do not rely on this value for anything but (periodic) metals
  | Electronic free energy        :        -323.59451377 Ha       -8805.45473620 eV

  Derived energy quantities:
  | Kinetic energy                :         322.26939696 Ha        8769.39647316 eV
  | Electrostatic energy          :        -603.74558386 Ha      -16428.75322255 eV
  | Energy correction for multipole
  | error in Hartree potential    :           0.01225178 Ha           0.33338779 eV
  | Sum of eigenvalues per atom                           :        -388.22288626 eV
  | Total energy (T->0) per atom                          :        -677.34267202 eV  <-- do not rely on this value for anything but (periodic) metals
  | Electronic free energy per atom                       :        -677.34267202 eV

  Self-consistency convergence accuracy:
  | Change of charge density      :  0.5798E+00
  | Change of sum of eigenvalues  :  0.9238E+02 eV
  | Change of total energy        :  0.4904E+01 eV

  End self-consistency iteration #     1       :  max(cpu_time)    wall_clock(cpu1)
  | Time for this iteration                    :        1.186 s           1.194 s
  | Charge density update                      :        0.392 s           0.393 s
  | Density mixing                             :        0.005 s           0.006 s
  | Hartree multipole update                   :        0.009 s           0.008 s
  | Hartree multipole summation                :        0.284 s           0.284 s
  | Integration                                :        0.494 s           0.501 s
  | Solution of K.-S. eqns.                    :        0.002 s           0.002 s
  | Total energy evaluation                    :        0.000 s           0.000 s

  Partial memory accounting:
  | Current value for overall tracked memory usage on task 0  :           0.165 MB
  | Peak value for overall tracked memory usage on task 0     :           0.695 MB after allocating gradient_basis_wave
  | Largest tracked array allocation on task 0 so far         :           0.397 MB  when allocating gradient_basis_wave
  Note:  These values currently only include a subset of arrays which are explicitly tracked.
  The "true" memory usage will be greater.
------------------------------------------------------------

------------------------------------------------------------
          Begin self-consistency iteration #    2

  Date     :  20200902, Time     :  102223.333
------------------------------------------------------------
  Evaluating new KS density.
  Integration grid: deviation in total charge (<rho> - N_e) =   4.973799E-14
  Pulay mixing of updated and previous charge densities.

  Evaluating partitioned Hartree potential by multipole expansion.
  | Analytical far-field extrapolation by fixed multipoles:
  | Hartree multipole sum: apparent total charge =  -0.238839E-03
  Summing up the Hartree potential.
  Time summed over all CPUs for potential: real work        0.282 s, elapsed        0.282 s
  | RMS charge density error from multipole expansion :   0.142440E-01

  Integrating Hamiltonian matrix: batch-based integration.
  Time summed over all CPUs for integration: real work        0.490 s, elapsed        0.490 s

  Updating Kohn-Sham eigenvalues and eigenvectors using ELSI and the ELPA eigensolver.
  Finished Cholesky decomposition
  | Time :     0.000 s
  Finished transformation to standard eigenproblem
  | Time :     0.000 s
  Starting LAPACK eigensolver
  Finished solving standard eigenproblem
  | Time :     0.001 s
  Finished back-transformation of eigenvectors
  | Time :     0.000 s

  Obtaining occupation numbers and chemical potential using ELSI.
  | Chemical potential (Fermi level):    -3.53932182eV
  Highest occupied state (VBM) at     -6.33913193 eV
  | Occupation number:      2.00000000

  Lowest unoccupied state (CBM) at    -1.80070887 eV
  | Occupation number:      0.00000000

  Overall HOMO-LUMO gap:      4.53842306 eV.

  Checking to see if s.c.f. parameters should be adjusted.

  Total energy components:
  | Sum of eigenvalues            :        -181.85559059 Ha       -4948.54239900 eV
  | XC energy correction          :         -42.48263591 Ha       -1156.01134035 eV
  | XC potential correction       :          54.62110384 Ha        1486.31585849 eV
  | Free-atom electrostatic energy:        -146.84172897 Ha       -3995.76674752 eV
  | Hartree energy correction     :          -6.95808296 Ha        -189.33907091 eV
  | vdW energy correction         :           0.00000000 Ha           0.00000000 eV
  | Entropy correction            :           0.00000000 Ha           0.00000000 eV
  | ---------------------------
  | Total energy                  :        -323.51693459 Ha       -8803.34369928 eV
  | Total energy, T -> 0          :        -323.51693459 Ha       -8803.34369928 eV  <-- do not rely on this value for anything but (periodic) metals
  | Electronic free energy        :        -323.51693459 Ha       -8803.34369928 eV

  Derived energy quantities:
  | Kinetic energy                :         323.60931043 Ha        8805.85737395 eV
  | Electrostatic energy          :        -604.64360911 Ha      -16453.18973289 eV
  | Energy correction for multipole
  | error in Hartree potential    :           0.02731077 Ha           0.74316373 eV
  | Sum of eigenvalues per atom                           :        -380.65710762 eV
  | Total energy (T->0) per atom                          :        -677.18028456 eV  <-- do not rely on this value for anything but (periodic) metals
  | Electronic free energy per atom                       :        -677.18028456 eV

  Self-consistency convergence accuracy:
  | Change of charge density      :  0.3623E+00
  | Change of sum of eigenvalues  :  0.9836E+02 eV
  | Change of total energy        :  0.2111E+01 eV

  End self-consistency iteration #     2       :  max(cpu_time)    wall_clock(cpu1)
  | Time for this iteration                    :        1.174 s           1.175 s
  | Charge density update                      :        0.384 s           0.383 s
  | Density mixing                             :        0.007 s           0.007 s
  | Hartree multipole update                   :        0.009 s           0.009 s
  | Hartree multipole summation                :        0.282 s           0.283 s
  | Integration                                :        0.490 s           0.490 s
  | Solution of K.-S. eqns.                    :        0.002 s           0.002 s
  | Total energy evaluation                    :        0.000 s           0.000 s

  Partial memory accounting:
  | Current value for overall tracked memory usage on task 0  :           0.166 MB
  | Peak value for overall tracked memory usage on task 0     :           0.695 MB after allocating gradient_basis_wave
  | Largest tracked array allocation on task 0 so far         :           0.397 MB  when allocating gradient_basis_wave
  Note:  These values currently only include a subset of arrays which are explicitly tracked.
  The "true" memory usage will be greater.
------------------------------------------------------------

------------------------------------------------------------
          Begin self-consistency iteration #    3

  Date     :  20200902, Time     :  102224.511
------------------------------------------------------------
  Evaluating new KS density.
  Integration grid: deviation in total charge (<rho> - N_e) =  -4.263256E-14
  Pulay mixing of updated and previous charge densities.

  Evaluating partitioned Hartree potential by multipole expansion.
  | Analytical far-field extrapolation by fixed multipoles:
  | Hartree multipole sum: apparent total charge =  -0.335870E-03
  Summing up the Hartree potential.
  Time summed over all CPUs for potential: real work        0.282 s, elapsed        0.282 s
  | RMS charge density error from multipole expansion :   0.226273E-01

  Integrating Hamiltonian matrix: batch-based integration.
  Time summed over all CPUs for integration: real work        0.492 s, elapsed        0.492 s

  Updating Kohn-Sham eigenvalues and eigenvectors using ELSI and the ELPA eigensolver.
  Finished Cholesky decomposition
  | Time :     0.000 s
  Finished transformation to standard eigenproblem
  | Time :     0.000 s
  Starting LAPACK eigensolver
  Finished solving standard eigenproblem
  | Time :     0.001 s
  Finished back-transformation of eigenvectors
  | Time :     0.000 s

  Obtaining occupation numbers and chemical potential using ELSI.
  | Chemical potential (Fermi level):    -2.85439534eV
  Highest occupied state (VBM) at     -5.69499694 eV
  | Occupation number:      2.00000000

  Lowest unoccupied state (CBM) at    -1.10127565 eV
  | Occupation number:      0.00000000

  Overall HOMO-LUMO gap:      4.59372128 eV.

  Total energy components:
  | Sum of eigenvalues            :        -180.58705970 Ha       -4914.02391735 eV
  | XC energy correction          :         -42.63205426 Ha       -1160.07722049 eV
  | XC potential correction       :          54.81153761 Ha        1491.49782496 eV
  | Free-atom electrostatic energy:        -146.84172897 Ha       -3995.76674752 eV
  | Hartree energy correction     :          -8.25573914 Ha        -224.65009205 eV
  | vdW energy correction         :           0.00000000 Ha           0.00000000 eV
  | Entropy correction            :           0.00000000 Ha           0.00000000 eV
  | ---------------------------
  | Total energy                  :        -323.50504446 Ha       -8803.02015245 eV
  | Total energy, T -> 0          :        -323.50504446 Ha       -8803.02015245 eV  <-- do not rely on this value for anything but (periodic) metals
  | Electronic free energy        :        -323.50504446 Ha       -8803.02015245 eV

  Derived energy quantities:
  | Kinetic energy                :         323.16063911 Ha        8793.64840606 eV
  | Electrostatic energy          :        -604.03362931 Ha      -16436.59133803 eV
  | Energy correction for multipole
  | error in Hartree potential    :           0.03892723 Ha           1.05926393 eV
  | Sum of eigenvalues per atom                           :        -378.00183980 eV
  | Total energy (T->0) per atom                          :        -677.15539634 eV  <-- do not rely on this value for anything but (periodic) metals
  | Electronic free energy per atom                       :        -677.15539634 eV

  Self-consistency convergence accuracy:
  | Change of charge density      :  0.2005E+00
  | Change of sum of eigenvalues  :  0.3452E+02 eV
  | Change of total energy        :  0.3235E+00 eV

  End self-consistency iteration #     3       :  max(cpu_time)    wall_clock(cpu1)
  | Time for this iteration                    :        1.177 s           1.178 s
  | Charge density update                      :        0.383 s           0.383 s
  | Density mixing                             :        0.008 s           0.008 s
  | Hartree multipole update                   :        0.009 s           0.009 s
  | Hartree multipole summation                :        0.282 s           0.282 s
  | Integration                                :        0.493 s           0.493 s
  | Solution of K.-S. eqns.                    :        0.002 s           0.002 s
  | Total energy evaluation                    :        0.000 s           0.001 s

  Partial memory accounting:
  | Current value for overall tracked memory usage on task 0  :           0.166 MB
  | Peak value for overall tracked memory usage on task 0     :           0.695 MB after allocating gradient_basis_wave
  | Largest tracked array allocation on task 0 so far         :           0.397 MB  when allocating gradient_basis_wave
  Note:  These values currently only include a subset of arrays which are explicitly tracked.
  The "true" memory usage will be greater.
------------------------------------------------------------

------------------------------------------------------------
          Begin self-consistency iteration #    4

  Date     :  20200902, Time     :  102225.692
------------------------------------------------------------
  Evaluating new KS density.
  Integration grid: deviation in total charge (<rho> - N_e) =   2.131628E-14
  Pulay mixing of updated and previous charge densities.

  Evaluating partitioned Hartree potential by multipole expansion.
  | Analytical far-field extrapolation by fixed multipoles:
  | Hartree multipole sum: apparent total charge =  -0.366465E-03
  Summing up the Hartree potential.
  Time summed over all CPUs for potential: real work        0.282 s, elapsed        0.282 s
  | RMS charge density error from multipole expansion :   0.259738E-01

  Integrating Hamiltonian matrix: batch-based integration.
  Time summed over all CPUs for integration: real work        0.491 s, elapsed        0.491 s

  Updating Kohn-Sham eigenvalues and eigenvectors using ELSI and the ELPA eigensolver.
  Finished Cholesky decomposition
  | Time :     0.000 s
  Finished transformation to standard eigenproblem
  | Time :     0.000 s
  Starting LAPACK eigensolver
  Finished solving standard eigenproblem
  | Time :     0.001 s
  Finished back-transformation of eigenvectors
  | Time :     0.000 s

  Obtaining occupation numbers and chemical potential using ELSI.
  | Chemical potential (Fermi level):    -2.75316003eV
  Highest occupied state (VBM) at     -5.51154216 eV
  | Occupation number:      2.00000000

  Lowest unoccupied state (CBM) at    -1.02917495 eV
  | Occupation number:      0.00000000

  Overall HOMO-LUMO gap:      4.48236721 eV.

  Total energy components:
  | Sum of eigenvalues            :        -180.43633001 Ha       -4909.92235371 eV
  | XC energy correction          :         -42.66903002 Ha       -1161.08338206 eV
  | XC potential correction       :          54.85816982 Ha        1492.76675202 eV
  | Free-atom electrostatic energy:        -146.84172897 Ha       -3995.76674752 eV
  | Hartree energy correction     :          -8.41541287 Ha        -228.99503525 eV
  | vdW energy correction         :           0.00000000 Ha           0.00000000 eV
  | Entropy correction            :           0.00000000 Ha           0.00000000 eV
  | ---------------------------
  | Total energy                  :        -323.50433204 Ha       -8803.00076651 eV
  | Total energy, T -> 0          :        -323.50433204 Ha       -8803.00076651 eV  <-- do not rely on this value for anything but (periodic) metals
  | Electronic free energy        :        -323.50433204 Ha       -8803.00076651 eV

  Derived energy quantities:
  | Kinetic energy                :         322.80468953 Ha        8783.96252513 eV
  | Electrostatic energy          :        -603.63999155 Ha      -16425.87990958 eV
  | Energy correction for multipole
  | error in Hartree potential    :           0.04305956 Ha           1.17171022 eV
  | Sum of eigenvalues per atom                           :        -377.68633490 eV
  | Total energy (T->0) per atom                          :        -677.15390512 eV  <-- do not rely on this value for anything but (periodic) metals
  | Electronic free energy per atom                       :        -677.15390512 eV

  Self-consistency convergence accuracy:
  | Change of charge density      :  0.6040E-01
  | Change of sum of eigenvalues  :  0.4102E+01 eV
  | Change of total energy        :  0.1939E-01 eV

  End self-consistency iteration #     4       :  max(cpu_time)    wall_clock(cpu1)
  | Time for this iteration                    :        1.177 s           1.178 s
  | Charge density update                      :        0.383 s           0.383 s
  | Density mixing                             :        0.009 s           0.009 s
  | Hartree multipole update                   :        0.009 s           0.009 s
  | Hartree multipole summation                :        0.282 s           0.283 s
  | Integration                                :        0.491 s           0.491 s
  | Solution of K.-S. eqns.                    :        0.002 s           0.002 s
  | Total energy evaluation                    :        0.000 s           0.000 s

  Partial memory accounting:
  | Current value for overall tracked memory usage on task 0  :           0.166 MB
  | Peak value for overall tracked memory usage on task 0     :           0.696 MB after allocating gradient_basis_wave
  | Largest tracked array allocation on task 0 so far         :           0.397 MB  when allocating gradient_basis_wave
  Note:  These values currently only include a subset of arrays which are explicitly tracked.
  The "true" memory usage will be greater.
------------------------------------------------------------

------------------------------------------------------------
          Begin self-consistency iteration #    5

  Date     :  20200902, Time     :  102226.873
------------------------------------------------------------
  Evaluating new KS density.
  Integration grid: deviation in total charge (<rho> - N_e) =   0.000000E+00
  Pulay mixing of updated and previous charge densities.

  Evaluating partitioned Hartree potential by multipole expansion.
  | Analytical far-field extrapolation by fixed multipoles:
  | Hartree multipole sum: apparent total charge =  -0.360717E-03
  Summing up the Hartree potential.
  Time summed over all CPUs for potential: real work        0.282 s, elapsed        0.282 s
  | RMS charge density error from multipole expansion :   0.257141E-01

  Integrating Hamiltonian matrix: batch-based integration.
  Time summed over all CPUs for integration: real work        0.493 s, elapsed        0.493 s

  Updating Kohn-Sham eigenvalues and eigenvectors using ELSI and the ELPA eigensolver.
  Finished Cholesky decomposition
  | Time :     0.000 s
  Finished transformation to standard eigenproblem
  | Time :     0.000 s
  Starting LAPACK eigensolver
  Finished solving standard eigenproblem
  | Time :     0.001 s
  Finished back-transformation of eigenvectors
  | Time :     0.000 s

  Obtaining occupation numbers and chemical potential using ELSI.
  | Chemical potential (Fermi level):    -2.80981618eV
  Highest occupied state (VBM) at     -5.58964540 eV
  | Occupation number:      2.00000000

  Lowest unoccupied state (CBM) at    -1.10245001 eV
  | Occupation number:      0.00000000

  Overall HOMO-LUMO gap:      4.48719539 eV.

  Total energy components:
  | Sum of eigenvalues            :        -180.60282212 Ha       -4914.45283444 eV
  | XC energy correction          :         -42.64815627 Ha       -1160.51537846 eV
  | XC potential correction       :          54.83111064 Ha        1492.03043412 eV
  | Free-atom electrostatic energy:        -146.84172897 Ha       -3995.76674752 eV
  | Hartree energy correction     :          -8.24243225 Ha        -224.28799314 eV
  | vdW energy correction         :           0.00000000 Ha           0.00000000 eV
  | Entropy correction            :           0.00000000 Ha           0.00000000 eV
  | ---------------------------
  | Total energy                  :        -323.50402896 Ha       -8802.99251945 eV
  | Total energy, T -> 0          :        -323.50402896 Ha       -8802.99251945 eV  <-- do not rely on this value for anything but (periodic) metals
  | Electronic free energy        :        -323.50402896 Ha       -8802.99251945 eV

  Derived energy quantities:
  | Kinetic energy                :         322.71606324 Ha        8781.55088105 eV
  | Electrostatic energy          :        -603.57193593 Ha      -16424.02802203 eV
  | Energy correction for multipole
  | error in Hartree potential    :           0.04244692 Ha           1.15503933 eV
  | Sum of eigenvalues per atom                           :        -378.03483342 eV
  | Total energy (T->0) per atom                          :        -677.15327073 eV  <-- do not rely on this value for anything but (periodic) metals
  | Electronic free energy per atom                       :        -677.15327073 eV

  Self-consistency convergence accuracy:
  | Change of charge density      :  0.2121E-01
  | Change of sum of eigenvalues  : -0.4530E+01 eV
  | Change of total energy        :  0.8247E-02 eV

  End self-consistency iteration #     5       :  max(cpu_time)    wall_clock(cpu1)
  | Time for this iteration                    :        1.180 s           1.181 s
  | Charge density update                      :        0.383 s           0.383 s
  | Density mixing                             :        0.011 s           0.011 s
  | Hartree multipole update                   :        0.009 s           0.009 s
  | Hartree multipole summation                :        0.283 s           0.283 s
  | Integration                                :        0.493 s           0.492 s
  | Solution of K.-S. eqns.                    :        0.002 s           0.003 s
  | Total energy evaluation                    :        0.000 s           0.000 s

  Partial memory accounting:
  | Current value for overall tracked memory usage on task 0  :           0.166 MB
  | Peak value for overall tracked memory usage on task 0     :           0.696 MB after allocating gradient_basis_wave
  | Largest tracked array allocation on task 0 so far         :           0.397 MB  when allocating gradient_basis_wave
  Note:  These values currently only include a subset of arrays which are explicitly tracked.
  The "true" memory usage will be greater.
------------------------------------------------------------

------------------------------------------------------------
          Begin self-consistency iteration #    6

  Date     :  20200902, Time     :  102228.057
------------------------------------------------------------
  Evaluating new KS density.
  Integration grid: deviation in total charge (<rho> - N_e) =   5.684342E-14
  Pulay mixing of updated and previous charge densities.

  Evaluating partitioned Hartree potential by multipole expansion.
  | Analytical far-field extrapolation by fixed multipoles:
  | Hartree multipole sum: apparent total charge =  -0.362450E-03
  Summing up the Hartree potential.
  Time summed over all CPUs for potential: real work        0.282 s, elapsed        0.282 s
  | RMS charge density error from multipole expansion :   0.260698E-01

  Integrating Hamiltonian matrix: batch-based integration.
  Time summed over all CPUs for integration: real work        0.493 s, elapsed        0.493 s

  Updating Kohn-Sham eigenvalues and eigenvectors using ELSI and the ELPA eigensolver.
  Finished Cholesky decomposition
  | Time :     0.000 s
  Finished transformation to standard eigenproblem
  | Time :     0.000 s
  Starting LAPACK eigensolver
  Finished solving standard eigenproblem
  | Time :     0.002 s
  Finished back-transformation of eigenvectors
  | Time :     0.000 s

  Obtaining occupation numbers and chemical potential using ELSI.
  | Chemical potential (Fermi level):    -2.82630225eV
  Highest occupied state (VBM) at     -5.57579409 eV
  | Occupation number:      2.00000000

  Lowest unoccupied state (CBM) at    -1.13549549 eV
  | Occupation number:      0.00000000

  Overall HOMO-LUMO gap:      4.44029860 eV.

  Total energy components:
  | Sum of eigenvalues            :        -180.64687611 Ha       -4915.65160464 eV
  | XC energy correction          :         -42.64157050 Ha       -1160.33617054 eV
  | XC potential correction       :          54.82255852 Ha        1491.79771919 eV
  | Free-atom electrostatic energy:        -146.84172897 Ha       -3995.76674752 eV
  | Hartree energy correction     :          -8.19634333 Ha        -223.03384980 eV
  | vdW energy correction         :           0.00000000 Ha           0.00000000 eV
  | Entropy correction            :           0.00000000 Ha           0.00000000 eV
  | ---------------------------
  | Total energy                  :        -323.50396038 Ha       -8802.99065330 eV
  | Total energy, T -> 0          :        -323.50396038 Ha       -8802.99065330 eV  <-- do not rely on this value for anything but (periodic) metals
  | Electronic free energy        :        -323.50396038 Ha       -8802.99065330 eV

  Derived energy quantities:
  | Kinetic energy                :         322.61616709 Ha        8778.83256867 eV
  | Electrostatic energy          :        -603.47855698 Ha      -16421.48705143 eV
  | Energy correction for multipole
  | error in Hartree potential    :           0.04263506 Ha           1.16015898 eV
  | Sum of eigenvalues per atom                           :        -378.12704651 eV
  | Total energy (T->0) per atom                          :        -677.15312718 eV  <-- do not rely on this value for anything but (periodic) metals
  | Electronic free energy per atom                       :        -677.15312718 eV

  Self-consistency convergence accuracy:
  | Change of charge density      :  0.1084E-01
  | Change of sum of eigenvalues  : -0.1199E+01 eV
  | Change of total energy        :  0.1866E-02 eV

  End self-consistency iteration #     6       :  max(cpu_time)    wall_clock(cpu1)
  | Time for this iteration                    :        1.183 s           1.183 s
  | Charge density update                      :        0.384 s           0.383 s
  | Density mixing                             :        0.012 s           0.013 s
  | Hartree multipole update                   :        0.009 s           0.008 s
  | Hartree multipole summation                :        0.283 s           0.283 s
  | Integration                                :        0.493 s           0.494 s
  | Solution of K.-S. eqns.                    :        0.002 s           0.002 s
  | Total energy evaluation                    :        0.000 s           0.000 s

  Partial memory accounting:
  | Current value for overall tracked memory usage on task 0  :           0.166 MB
  | Peak value for overall tracked memory usage on task 0     :           0.696 MB after allocating gradient_basis_wave
  | Largest tracked array allocation on task 0 so far         :           0.397 MB  when allocating gradient_basis_wave
  Note:  These values currently only include a subset of arrays which are explicitly tracked.
  The "true" memory usage will be greater.
------------------------------------------------------------

------------------------------------------------------------
          Begin self-consistency iteration #    7

  Date     :  20200902, Time     :  102229.244
------------------------------------------------------------
  Evaluating new KS density.
  Integration grid: deviation in total charge (<rho> - N_e) =  -2.131628E-14
  Pulay mixing of updated and previous charge densities.

  Evaluating partitioned Hartree potential by multipole expansion.
  | Analytical far-field extrapolation by fixed multipoles:
  | Hartree multipole sum: apparent total charge =  -0.363848E-03
  Summing up the Hartree potential.
  Time summed over all CPUs for potential: real work        0.283 s, elapsed        0.283 s
  | RMS charge density error from multipole expansion :   0.262354E-01

  Integrating Hamiltonian matrix: batch-based integration.
  Time summed over all CPUs for integration: real work        0.492 s, elapsed        0.492 s

  Updating Kohn-Sham eigenvalues and eigenvectors using ELSI and the ELPA eigensolver.
  Finished Cholesky decomposition
  | Time :     0.000 s
  Finished transformation to standard eigenproblem
  | Time :     0.000 s
  Starting LAPACK eigensolver
  Finished solving standard eigenproblem
  | Time :     0.002 s
  Finished back-transformation of eigenvectors
  | Time :     0.000 s

[...]
  |   Hirshfeld dipole moment :      0.06394944
  |   Hirshfeld second moments:      0.00828258      -0.01554568      -0.01428204
  |                                 -0.01554568      -0.00666241       0.00806275
  |                                 -0.01428204       0.00806275      -0.01992095
  ----------------------------------------------------------------------
  | Atom    12: O
  |   Hirshfeld charge        :     -0.12858308
  |   Free atom volume        :     23.61338643
  |   Hirshfeld volume        :     20.43392778
  |   Hirshfeld dipole vector :      0.01058597       0.00474647       0.02768199
  |   Hirshfeld dipole moment :      0.03001474
  |   Hirshfeld second moments:      0.06477553       0.00858043      -0.01258806
  |                                  0.00858043       0.09861948      -0.01821742
  |                                 -0.01258806      -0.01821742       0.05238966
  ----------------------------------------------------------------------
  | Atom    13: H
  |   Hirshfeld charge        :      0.17297721
  |   Free atom volume        :      9.95071624
  |   Hirshfeld volume        :      6.36578443
  |   Hirshfeld dipole vector :     -0.02969367      -0.09441089       0.05212448
  |   Hirshfeld dipole moment :      0.11185746
  |   Hirshfeld second moments:      0.11566212       0.00052407      -0.01471743
  |                                  0.00052407       0.12319717      -0.00092694
  |                                 -0.01471743      -0.00092694       0.08363350
  ----------------------------------------------------------------------


  Total energy components:
  | Sum of eigenvalues            :        -180.63450407 Ha       -4915.31494428 eV
  | XC energy correction          :         -42.63967236 Ha       -1160.28451956 eV
  | XC potential correction       :          54.82018052 Ha        1491.73301044 eV
  | Free-atom electrostatic energy:        -146.84172897 Ha       -3995.76674752 eV
  | Hartree energy correction     :          -8.20821679 Ha        -223.35694301 eV
  | vdW energy correction         :          -0.00324965 Ha          -0.08842758 eV
  | Entropy correction            :           0.00000000 Ha           0.00000000 eV
  | ---------------------------
  | Total energy                  :        -323.50719132 Ha       -8803.07857151 eV
  | Total energy, T -> 0          :        -323.50719132 Ha       -8803.07857151 eV  <-- do not rely on this value for anything but (periodic) metals
  | Electronic free energy        :        -323.50719132 Ha       -8803.07857151 eV

  Derived energy quantities:
  | Kinetic energy                :         322.57796240 Ha        8777.79296619 eV
  | Electrostatic energy          :        -603.44223171 Ha      -16420.49859055 eV
  | Energy correction for multipole
  | error in Hartree potential    :           0.04273407 Ha           1.16285318 eV
  | Sum of eigenvalues per atom                           :        -378.10114956 eV
  | Total energy (T->0) per atom                          :        -677.15989012 eV  <-- do not rely on this value for anything but (periodic) metals
  | Electronic free energy per atom                       :        -677.15989012 eV

  atomic forces [eV/Ang]:
  -----------------------
  atom #    1
   Hellmann-Feynman              :  0.344627E+00  0.131875E+00  0.635224E+00
   Ionic forces                  :  0.000000E+00  0.000000E+00  0.000000E+00
   Multipole                     :  0.208810E+00  0.228130E+00 -0.273114E+00
   Pulay + GGA                   : -0.112384E+01 -0.426620E+00 -0.995473E+00
   Van der Waals                 :  0.151159E-02  0.584619E-03 -0.131438E-02
   ----------------------------------------------------------------
   Total forces(   1)            : -0.568889E+00 -0.660309E-01 -0.634678E+00
  atom #    2
   Hellmann-Feynman              :  0.267153E+00 -0.173162E-01  0.129864E+00
   Ionic forces                  :  0.000000E+00  0.000000E+00  0.000000E+00
   Multipole                     :  0.180039E+00  0.114663E-01  0.449024E-02
   Pulay + GGA                   : -0.126989E+00  0.112302E-01  0.341695E-01
   Van der Waals                 :  0.613283E-02 -0.426661E-02 -0.489045E-02
   ----------------------------------------------------------------
   Total forces(   2)            :  0.326336E+00  0.111372E-02  0.163633E+00
  atom #    3
   Hellmann-Feynman              : -0.662904E+01  0.905845E+01 -0.690209E+00
   Ionic forces                  :  0.000000E+00  0.000000E+00  0.000000E+00
   Multipole                     : -0.179465E+00  0.233001E+00 -0.105075E+01
   Pulay + GGA                   :  0.703444E+01 -0.900159E+01  0.225621E+01
   Van der Waals                 :  0.294133E-02 -0.744521E-02 -0.656565E-02
   ----------------------------------------------------------------
   Total forces(   3)            :  0.228876E+00  0.282413E+00  0.508686E+00
  atom #    4
   Hellmann-Feynman              : -0.469642E-01 -0.274654E+00 -0.139424E+00
   Ionic forces                  :  0.000000E+00  0.000000E+00  0.000000E+00
   Multipole                     :  0.313891E-01 -0.851731E-02 -0.104660E+00
   Pulay + GGA                   : -0.186482E+00  0.712232E-01  0.118603E+00
   Van der Waals                 : -0.379384E-02 -0.935620E-04  0.613214E-02
   ----------------------------------------------------------------
   Total forces(   4)            : -0.205851E+00 -0.212042E+00 -0.119349E+00
  atom #    5
   Hellmann-Feynman              :  0.758676E-01 -0.187704E+00 -0.319955E+00
   Ionic forces                  :  0.000000E+00  0.000000E+00  0.000000E+00
   Multipole                     : -0.469543E-01 -0.760287E-01 -0.684252E-01
   Pulay + GGA                   :  0.603089E-01  0.228204E+00  0.598352E-01
   Van der Waals                 : -0.140324E-02  0.944527E-03  0.431807E-02
   ----------------------------------------------------------------
   Total forces(   5)            :  0.878189E-01 -0.345843E-01 -0.324227E+00
  atom #    6
   Hellmann-Feynman              : -0.187663E-01 -0.540365E+00  0.619810E+00
   Ionic forces                  :  0.000000E+00  0.000000E+00  0.000000E+00
   Multipole                     : -0.948817E-01  0.636691E+00  0.238468E+00
   Pulay + GGA                   :  0.239148E+00 -0.475455E+00 -0.597000E+00
   Van der Waals                 : -0.282684E-02  0.541701E-02 -0.410559E-02
   ----------------------------------------------------------------
   Total forces(   6)            :  0.122673E+00 -0.373712E+00  0.257173E+00
  atom #    7
   Hellmann-Feynman              : -0.199189E+00 -0.466862E-01 -0.599630E-01
   Ionic forces                  :  0.000000E+00  0.000000E+00  0.000000E+00
   Multipole                     : -0.119915E+00  0.493347E-01  0.228120E-01
   Pulay + GGA                   :  0.120854E+00  0.738640E-02 -0.248137E-01
   Van der Waals                 : -0.132599E-02  0.823903E-03  0.269904E-02
   ----------------------------------------------------------------
   Total forces(   7)            : -0.199575E+00  0.108589E-01 -0.592657E-01
  atom #    8
   Hellmann-Feynman              :  0.833404E-01 -0.233376E-01  0.186249E+00
   Ionic forces                  :  0.000000E+00  0.000000E+00  0.000000E+00
   Multipole                     :  0.160230E-01  0.611746E-01  0.122070E+00
   Pulay + GGA                   : -0.400592E-01 -0.330314E-01 -0.820536E-01
   Van der Waals                 : -0.261023E-02  0.114176E-01  0.165438E-02
   ----------------------------------------------------------------
   Total forces(   8)            :  0.566941E-01  0.162231E-01  0.227920E+00
  atom #    9
   Hellmann-Feynman              :  0.105630E+00 -0.205302E-02 -0.198284E+00
   Ionic forces                  :  0.000000E+00  0.000000E+00  0.000000E+00
   Multipole                     :  0.133118E-01  0.127880E+00 -0.127165E-01
   Pulay + GGA                   : -0.630911E-01 -0.956675E-01  0.336429E-01
   Van der Waals                 : -0.185511E-02  0.226562E-02  0.293192E-02
   ----------------------------------------------------------------
   Total forces(   9)            :  0.539960E-01  0.324249E-01 -0.174426E+00
  atom #   10
   Hellmann-Feynman              :  0.300128E+01  0.545898E+01  0.588631E+00
   Ionic forces                  :  0.000000E+00  0.000000E+00  0.000000E+00
   Multipole                     :  0.127842E-01 -0.120908E+00  0.150027E+00
   Pulay + GGA                   : -0.172336E+01 -0.301615E+01 -0.233451E+00
   Van der Waals                 :  0.332704E-02 -0.124289E-01  0.136428E-03
   ----------------------------------------------------------------
   Total forces(  10)            :  0.129402E+01  0.230950E+01  0.505344E+00
  atom #   11
   Hellmann-Feynman              :  0.410164E+01 -0.250886E+01  0.143626E+02
   Ionic forces                  :  0.000000E+00  0.000000E+00  0.000000E+00
   Multipole                     :  0.159952E+00 -0.497433E+00  0.758817E+00
   Pulay + GGA                   : -0.347235E+01  0.334471E+01 -0.134983E+02
   Van der Waals                 : -0.358058E-02 -0.118981E-01  0.752733E-03
   ----------------------------------------------------------------
   Total forces(  11)            :  0.785664E+00  0.326523E+00  0.162395E+01
  atom #   12
   Hellmann-Feynman              : -0.540473E+01  0.885757E+00 -0.152944E+02
   Ionic forces                  :  0.000000E+00  0.000000E+00  0.000000E+00
   Multipole                     : -0.866920E+00 -0.104485E+01 -0.806364E+00
   Pulay + GGA                   :  0.474395E+01 -0.129018E+01  0.140908E+02
   Van der Waals                 :  0.192066E-02  0.734363E-02  0.291935E-02
   ----------------------------------------------------------------
   Total forces(  12)            : -0.152579E+01 -0.144193E+01 -0.200707E+01
  atom #   13
   Hellmann-Feynman              : -0.533375E+00 -0.108883E+01  0.163935E+00
   Ionic forces                  :  0.000000E+00  0.000000E+00  0.000000E+00
   Multipole                     :  0.193406E-01 -0.308488E-01  0.828725E-01
   Pulay + GGA                   :  0.550391E-01  0.257307E+00 -0.210449E+00
   Van der Waals                 :  0.156237E-02  0.733541E-02 -0.466799E-02
   ----------------------------------------------------------------
   Total forces(  13)            : -0.457433E+00 -0.855035E+00  0.316897E-01

  Timings for VdW correction (Tkatchenko-Scheffler 2009 or later):
  | CPU time:        0.088 s, Wall clock time:        0.088 s.
  Removing unitary transformations (pure translations, rotations) from forces on atoms.
  Atomic forces before filtering:
  | Net force on center of mass :  -0.145142E-02 -0.427231E-02 -0.611424E-03 eV/A
  | Net torque on center of mass:  -0.740554E-02  0.423721E-02 -0.485328E-02 eV
  Atomic forces after filtering:
  | Net force on center of mass :  -0.178406E-15  0.000000E+00 -0.384688E-15 eV/A
  | Net torque on center of mass:   0.113290E-14 -0.333380E-15  0.188817E-15 eV

  Energy and forces in a compact form:
  | Total energy uncorrected      :         -0.880307857151164E+04 eV
  | Total energy corrected        :         -0.880307857151164E+04 eV  <-- do not rely on this value for anything but (periodic) metals
  | Electronic free energy        :         -0.880307857151164E+04 eV
  Total atomic forces (unitary forces cleaned) [eV/Ang]:
  |   1         -0.568783412979409E+00         -0.656212940791637E-01         -0.634534162948056E+00
  |   2          0.326441098226532E+00          0.168152958989572E-02          0.163952407371299E+00
  |   3          0.229208069734018E+00          0.282972878828073E+00          0.508752046806018E+00
  |   4         -0.205420727539470E+00         -0.211267782950118E+00         -0.119150658587814E+00
  |   5          0.882982636152506E-01         -0.340793540464800E-01         -0.324379759511305E+00
  |   6          0.122478790695032E+00         -0.373487477427224E+00          0.257433392645532E+00
  |   7         -0.199776074185315E+00          0.109226252147827E-01         -0.591764305746306E-01
  |   8          0.563325430146004E-01          0.163392702116776E-01          0.228240166818274E+00
  |   9          0.537526612773925E-01          0.327802384186112E-01         -0.173967382777053E+00
  |  10          0.129419663631420E+01          0.230973966847616E+01          0.505223643813951E+00
  |  11          0.785693585314099E+00          0.326624984249227E+00          0.162383663214973E+01
  |  12         -0.152538141017056E+01         -0.144168892559863E+01         -0.200743177910400E+01
  |  13         -0.457040023316377E+00         -0.854916360886809E+00          0.312018838980474E-01

  ------------------------------------ 
  Start decomposition of the XC Energy 
  ------------------------------------ 
  X and C from original XC functional choice 
  Hartree-Fock Energy :          0.000000000 Ha              0.000000000 eV
  X Energy            :        -41.039052988 Ha          -1116.729450374 eV
  C Energy            :         -1.600619373 Ha            -43.555069186 eV
  Total XC Energy     :        -42.639672361 Ha          -1160.284519561 eV
  ------------------------------------ 
  LDA X and C from self-consistent density 
  X Energy LDA        :        -37.258482622 Ha          -1013.854896512 eV
  C Energy LDA        :         -3.138665479 Ha            -85.407433176 eV
  ------------------------------------ 
  End decomposition of the XC Energy 
  ------------------------------------ 

------------------------------------------------------------

------------------------------------------------------------------------------
  Final output of selected total energy values:

  The following output summarizes some interesting total energy values
  at the end of a run (AFTER all relaxation, molecular dynamics, etc.).

  | Total energy of the DFT / Hartree-Fock s.c.f. calculation      :          -8803.078571512 eV
  | Final zero-broadening corrected energy (caution - metals only) :          -8803.078571512 eV
  | For reference only, the value of 1 Hartree used in FHI-aims is :             27.211384500 eV

  Before relying on these values, please be sure to understand exactly which
  total energy value is referred to by a given number. Different objects may
  all carry the same name 'total energy'. Definitions:

  Total energy of the DFT / Hartree-Fock s.c.f. calculation:
  | Note that this energy does not include ANY quantities calculated after the
  | s.c.f. cycle, in particular not ANY RPA, MP2, etc. many-body perturbation terms.

  Final zero-broadening corrected energy:
  | For metallic systems only, a broadening of the occupation numbers at the Fermi
  | level can be extrapolated back to zero broadening by an electron-gas inspired
  | formula. For all systems that are not real metals, this value can be
  | meaningless and should be avoided.

------------------------------------------------------------------------------
  Methods described in the following list of references were used in this FHI-aims run.
  If you publish the results, please make sure to cite these reference if they apply.
  FHI-aims is an academic code, and for our developers (often, Ph.D. students
  and postdocs), scientific credit in the community is essential.
  Thank you for helping us!

  For any use of FHI-aims, please cite:

    Volker Blum, Ralf Gehrke, Felix Hanke, Paula Havu, Ville Havu,
    Xinguo Ren, Karsten Reuter, and Matthias Scheffler
    'Ab initio molecular simulations with numeric atom-centered orbitals'
    Computer Physics Communications 180, 2175-2196 (2009)
    http://dx.doi.org/10.1016/j.cpc.2009.06.022


  The scalable eigensolver library ELPA was used in your run.
  ELPA is essential especially for large systems on hundreds or thousands of CPUs.
  For ELPA, please cite:

    Andreas Marek, Volker Blum, Rainer Johanni, Ville Havu, Bruno Lang,
    Thomas Auckenthaler, Alexander Heinecke, Hans-Joachim Bungartz, and Hermann Lederer,
    'The ELPA Library - Scalable Parallel Eigenvalue Solutions
    for Electronic Structure Theory and Computational Science'
    The Journal of Physics: Condensed Matter 26, 213201 (2014).
    http://dx.doi.org/10.1088/0953-8984/26/21/213201


  The ELSI infrastructure was used in your run to solve the Kohn-Sham electronic structure.
  Please check out http://elsi-interchange.org to learn more.
  If scalability is important for your project, please acknowledge ELSI by citing:

    V. W-z. Yu, F. Corsetti, A. Garcia, W. P. Huhn, M. Jacquelin, W. Jia,
    B. Lange, L. Lin, J. Lu, W. Mi, A. Seifitokaldani, A. Vazquez-Mayagoitia,
    C. Yang, H. Yang, and V. Blum
    'ELSI: A unified software interface for Kohn-Sham electronic structure solvers'
    Computer Physics Communications 222, 267-285 (2018).
    http://dx.doi.org/10.1016/j.cpc.2017.09.007


  For the real-space grid partitioning and parallelization used in this calculation, please cite:

    Ville Havu, Volker Blum, Paula Havu, and Matthias Scheffler,
    'Efficient O(N) integration for all-electron electronic structure calculation'
    'using numerically tabulated basis functions'
    Journal of Computational Physics 228, 8367-8379 (2009).
    http://dx.doi.org/10.1016/j.jcp.2009.08.008

  Of course, there are many other important community references, e.g., those cited in the
  above references. Our list is limited to references that describe implementations in the
  FHI-aims code. The reason is purely practical (length of this list) - please credit others as well.

------------------------------------------------------------
          Leaving FHI-aims.
          Date     :  20200902, Time     :  102243.491

          Computational steps:
          | Number of self-consistency cycles          :           16
          | Number of SCF (re)initializations          :            1

          Detailed time accounting                     :  max(cpu_time)    wall_clock(cpu1)
          | Total time                                 :       22.580 s          22.666 s
          | Preparation time                           :        0.146 s           0.147 s
          | Boundary condition initalization           :        0.000 s           0.000 s
          | Grid partitioning                          :        0.111 s           0.111 s
          | Preloading free-atom quantities on grid    :        0.002 s           0.002 s
          | Free-atom superposition energy             :        0.085 s           0.085 s
          | Total time for integrations                :        8.586 s           8.599 s
          | Total time for solution of K.-S. equations :        0.036 s           0.040 s
          | Total time for density & force components  :        7.095 s           7.101 s
          | Total time for mixing                      :        0.213 s           0.217 s
          | Total time for Hartree multipole update    :        0.140 s           0.142 s
          | Total time for Hartree multipole sum       :        5.768 s           5.772 s
          | Total time for total energy evaluation     :        0.003 s           0.002 s
          | Total time for vdW correction              :        0.088 s           0.088 s

          Partial memory accounting:
          | Residual value for overall tracked memory usage across tasks :           0.000 MB (should be 0.000 MB)
          | Peak values for overall tracked memory usage (after allocating hessian_basis_wave):
          |   Minimum:        1.622 MB (on task 1)
          |   Maximum:        1.622 MB (on task 1)
          |   Average:        1.622 MB
          | Largest tracked array allocation (hessian_basis_wave):
          |   Minimum:        0.794 MB (on task 1)
          |   Maximum:        0.794 MB (on task 1)
          |   Average:        0.794 MB
          Note:  These values currently only include a subset of arrays which are explicitly tracked.
          The "true" memory usage will be greater.

          Have a nice day.
------------------------------------------------------------
