  MPI-parallelism will be employed.
------------------------------------------------------------
          Invoking FHI-aims ...
          Version 171221_1
          Compiled on 2019/09/09 at 14:39:39 on host puhti-login2.bullx.

          When using FHI-aims, please cite the following reference:

          Volker Blum, Ralf Gehrke, Felix Hanke, Paula Havu,
          Ville Havu, Xinguo Ren, Karsten Reuter, and Matthias Scheffler,
          'Ab Initio Molecular Simulations with Numeric Atom-Centered Orbitals',
          Computer Physics Communications 180, 2175-2196 (2009)

          For any questions about FHI-aims, please visit the aimsclub website
          with its forums and wiki. Contributions to both the forums and the
          wiki are warmly encouraged - they are for you, and everyone is welcome there.

------------------------------------------------------------



  Date     :  20200805, Time     :  181622.158
  Time zero on CPU 1             :   0.117910000000000E-01  s.
  Internal wall clock time zero  :           365883382.158  s.

  FHI-aims created a unique identifier for this run for later identification
  aims_uuid : 368F7386-7680-4909-A89A-98CA01EEBD38

  Using        1 parallel tasks.
  Task        0 on host r16c03.bullx reporting.

  Performing system and environment tests:
  | Environment variable OMP_NUM_THREADS correctly set to 1.
  | Stacksize not measured: no C compiler
  | Checking for scalapack...
  | Testing pdtran()...
  | All pdtran() tests passed.

  Obtaining array dimensions for all initial allocations:
  
  -----------------------------------------------------------------------
  Parsing control.in (first pass over file, find array dimensions only).
  The contents of control.in will be repeated verbatim below
  unless switched off by setting 'verbatim_writeout .false.' .
  in the first line of control.in .
  -----------------------------------------------------------------------
  
  #########################################################################################
  #
  #  Volker Blum, FHI 2009 : Test run input file control.in for simple H2O
  #
  #########################################################################################
  #
  #  Physical model
  #
    xc                 pbe
    vdw_correction_hirshfeld
    spin               none
    relativistic       none
    charge             0.
  #
  #  SCF convergence
  #
    occupation_type    gaussian 0.01
    mixer              pulay
      n_max_pulay        10
      charge_mix_param   0.2
    sc_accuracy_rho    1E-5
    sc_accuracy_eev    1E-3
    sc_accuracy_etot   1E-6
    sc_accuracy_forces 1E-4
    sc_iter_limit      100
  #
  #  Relaxation
  #
  #  relax_geometry   bfgs 1.e-3
  #
  ################################################################################
  #
  #  FHI-aims code project
  #  VB, Fritz-Haber Institut, 2009
  #
  #  Suggested "light" defaults for H atom (to be pasted into control.in file)
  #  Be sure to double-check any results obtained with these settings for post-processing,
  #  e.g., with the "tight" defaults and larger basis sets.
  #
  ################################################################################
    species        H
  #     global species definitions
      nucleus             1
      mass                1.00794
  #
      l_hartree           4
  #
      cut_pot             3.5  1.5  1.0
      basis_dep_cutoff    1e-4
  #
      radial_base         24 5.0
      radial_multiplier   1
      angular_grids       specified
        division   0.2421   50
        division   0.3822  110
        division   0.4799  194
        division   0.5341  302
  #      division   0.5626  434
  #      division   0.5922  590
  #      division   0.6542  770
  #      division   0.6868 1202
  #      outer_grid  770
        outer_grid  302
  ################################################################################
  #
  #  Definition of "minimal" basis
  #
  ################################################################################
  #     valence basis states
      valence      1  s   1.
  #     ion occupancy
      ion_occ      1  s   0.5
  ################################################################################
  #
  #  Suggested additional basis functions. For production calculations,
  #  uncomment them one after another (the most important basis functions are
  #  listed first).
  #
  #  Basis constructed for dimers: 0.5 A, 0.7 A, 1.0 A, 1.5 A, 2.5 A
  #
  ################################################################################
  #  "First tier" - improvements: -1014.90 meV to -62.69 meV
       hydro 2 s 2.1
       hydro 2 p 3.5
  #  "Second tier" - improvements: -12.89 meV to -1.83 meV
  #     hydro 1 s 0.85
  #     hydro 2 p 3.7
  #     hydro 2 s 1.2
  #     hydro 3 d 7
  #  "Third tier" - improvements: -0.25 meV to -0.12 meV
  #     hydro 4 f 11.2
  #     hydro 3 p 4.8
  #     hydro 4 d 9
  #     hydro 3 s 3.2
  ################################################################################
  #
  #  FHI-aims code project
  #  VB, Fritz-Haber Institut, 2009
  #
  #  Suggested "light" defaults for C atom (to be pasted into control.in file)
  #  Be sure to double-check any results obtained with these settings for post-processing,
  #  e.g., with the "tight" defaults and larger basis sets.
  #
  ################################################################################
    species        C
  #     global species definitions
      nucleus             6
      mass                12.0107
  #
      l_hartree           4
  #
      cut_pot             3.5  1.5  1.0
      basis_dep_cutoff    1e-4
  #
      radial_base         34 5.0
      radial_multiplier   1
      angular_grids specified
        division   0.3326   50
        division   0.5710  110
        division   0.7727  194
        division   0.8772  302
  #      division   0.9334  434
  #      division   0.9625  590
  #      division   0.9924  770
  #      division   1.0230  974
  #      division   1.4589 1202
  #     outer_grid  974
       outer_grid 302
  ################################################################################
  #
  #  Definition of "minimal" basis
  #
  ################################################################################
  #     valence basis states
      valence      2  s   2.
      valence      2  p   2.
  #     ion occupancy
      ion_occ      2  s   1.
      ion_occ      2  p   1.
  ################################################################################
  #
  #  Suggested additional basis functions. For production calculations,
  #  uncomment them one after another (the most important basis functions are
  #  listed first).
  #
  #  Constructed for dimers: 1.0 A, 1.25 A, 1.5 A, 2.0 A, 3.0 A
  #
  ################################################################################
  #  "First tier" - improvements: -1214.57 meV to -155.61 meV
       hydro 2 p 1.7
       hydro 3 d 6
       hydro 2 s 4.9
  #  "Second tier" - improvements: -67.75 meV to -5.23 meV
  #     hydro 4 f 9.8
  #     hydro 3 p 5.2
  #     hydro 3 s 4.3
  #     hydro 5 g 14.4
  #     hydro 3 d 6.2
  #  "Third tier" - improvements: -2.43 meV to -0.60 meV
  #     hydro 2 p 5.6
  #     hydro 2 s 1.4
  #     hydro 3 d 4.9
  #     hydro 4 f 11.2
  #  "Fourth tier" - improvements: -0.39 meV to -0.18 meV
  #     hydro 2 p 2.1
  #     hydro 5 g 16.4
  #     hydro 4 d 13.2
  #     hydro 3 s 13.6
  #     hydro 4 f 17.6
  #  Further basis functions - improvements: -0.08 meV and below
  #     hydro 3 s 2
  #     hydro 3 p 6
  #     hydro 4 d 20
  ################################################################################
  #
  #  FHI-aims code project
  #  VB, Fritz-Haber Institut, 2009
  #
  #  Suggested "light" defaults for N atom (to be pasted into control.in file)
  #  Be sure to double-check any results obtained with these settings for post-processing,
  #  e.g., with the "tight" defaults and larger basis sets.
  #
  ################################################################################
    species        N
  #     global species definitions
      nucleus             7
      mass                14.0067
  #
      l_hartree           4
  #
      cut_pot             3.5  1.5  1.0
      basis_dep_cutoff    1e-4
  #
      radial_base         35 5.0
      radial_multiplier   1
      angular_grids       specified
        division   0.2599   50
        division   0.4601  110
        division   0.5885  194
        division   0.6503  302
  #      division   0.6939  434
  #      division   0.7396  590
  #      division   0.7632  770
  #      division   0.8122  974
  #      division   1.1604 1202
  #      outer_grid  974
        outer_grid  302
  ################################################################################
  #
  #  Definition of "minimal" basis
  #
  ################################################################################
  #     valence basis states
      valence      2  s   2.
      valence      2  p   3.
  #     ion occupancy
      ion_occ      2  s   1.
      ion_occ      2  p   2.
  ################################################################################
  #
  #  Suggested additional basis functions. For production calculations,
  #  uncomment them one after another (the most important basis functions are
  #  listed first).
  #
  #  Constructed for dimers: 1.0 A, 1.1 A, 1.5 A, 2.0 A, 3.0 A
  #
  ################################################################################
  #  "First tier" - improvements: -1193.42 meV to -220.60 meV
       hydro 2 p 1.8
       hydro 3 d 6.8
       hydro 3 s 5.8
  #  "Second tier" - improvements: -80.21 meV to -6.86 meV
  #     hydro 4 f 10.8
  #     hydro 3 p 5.8
  #     hydro 1 s 0.8
  #     hydro 5 g 16
  #     hydro 3 d 4.9
  #  "Third tier" - improvements: -4.29 meV to -0.53 meV
  #     hydro 3 s 16
  #     ionic 2 p auto
  #     hydro 3 d 6.6
  #     hydro 4 f 11.6
  #  "Fourth tier" - improvements: -0.75 meV to -0.25 meV
  #     hydro 2 p 4.5
  #     hydro 2 s 2.4
  #     hydro 5 g 14.4
  #     hydro 4 d 14.4
  #     hydro 4 f 16.8
  # Further basis functions - -0.21 meV and below
  #     hydro 3 p 14.8
  #     hydro 3 s 4.4
  #     hydro 3 d 19.6
  #     hydro 5 g 12.8
  ################################################################################
  #
  #  FHI-aims code project
  #  VB, Fritz-Haber Institut, 2009
  #
  #  Suggested "light" defaults for O atom (to be pasted into control.in file)
  #  Be sure to double-check any results obtained with these settings for post-processing,
  #  e.g., with the "tight" defaults and larger basis sets.
  #
  ################################################################################
    species        O
  #     global species definitions
      nucleus             8
      mass                15.9994
  #
      l_hartree           4
  #
      cut_pot             3.5  1.5  1.0
      basis_dep_cutoff    1e-4
  #
      radial_base         36 5.0
      radial_multiplier   1
       angular_grids specified
        division   0.2659   50
        division   0.4451  110
        division   0.6052  194
        division   0.7543  302
  #      division   0.8014  434
  #      division   0.8507  590
  #      division   0.8762  770
  #      division   0.9023  974
  #      division   1.2339 1202
  #      outer_grid 974
        outer_grid 302
  ################################################################################
  #
  #  Definition of "minimal" basis
  #
  ################################################################################
  #     valence basis states
      valence      2  s   2.
      valence      2  p   4.
  #     ion occupancy
      ion_occ      2  s   1.
      ion_occ      2  p   3.
  ################################################################################
  #
  #  Suggested additional basis functions. For production calculations,
  #  uncomment them one after another (the most important basis functions are
  #  listed first).
  #
  #  Constructed for dimers: 1.0 A, 1.208 A, 1.5 A, 2.0 A, 3.0 A
  #
  ################################################################################
  #  "First tier" - improvements: -699.05 meV to -159.38 meV
       hydro 2 p 1.8
       hydro 3 d 7.6
       hydro 3 s 6.4
  #  "Second tier" - improvements: -49.91 meV to -5.39 meV
  #     hydro 4 f 11.6
  #     hydro 3 p 6.2
  #     hydro 3 d 5.6
  #     hydro 5 g 17.6
  #     hydro 1 s 0.75
  #  "Third tier" - improvements: -2.83 meV to -0.50 meV
  #     ionic 2 p auto
  #     hydro 4 f 10.8
  #     hydro 4 d 4.7
  #     hydro 2 s 6.8
  #  "Fourth tier" - improvements: -0.40 meV to -0.12 meV
  #     hydro 3 p 5
  #     hydro 3 s 3.3
  #     hydro 5 g 15.6
  #     hydro 4 f 17.6
  #     hydro 4 d 14
  # Further basis functions - -0.08 meV and below
  #     hydro 3 s 2.1
  #     hydro 4 d 11.6
  #     hydro 3 p 16
  #     hydro 2 s 17.2
  
  -----------------------------------------------------------------------
  Completed first pass over input file control.in .
  -----------------------------------------------------------------------
  
  
  -----------------------------------------------------------------------
  Parsing geometry.in (first pass over file, find array dimensions only).
  The contents of geometry.in will be repeated verbatim below
  unless switched off by setting 'verbatim_writeout .false.' .
  in the first line of geometry.in .
  -----------------------------------------------------------------------
  
  atom  0.00000 0.00000 0.00000 C
  atom  1.09300 0.00000 0.00000 H
  atom  -0.47961 0.00000 -1.41207 N
  atom  -0.95636 0.88367 -1.59558 H
  atom  0.32296 -0.10170 -2.02986 H
  atom  -0.49584 1.26211 0.72868 C
  atom  -1.58789 1.28919 0.74431 H
  atom  -0.13407 1.27425 1.75947 H
  atom  -0.13407 2.16087 0.22380 H
  atom  -0.39425 -1.28861 0.74398 C
  atom  -0.10189 -1.56493 1.88303 O
  atom  -1.10210 -2.13717 0.06896 O
  atom  -0.90381 -2.93352 0.59001 H
  
  -----------------------------------------------------------------------
  Completed first pass over input file geometry.in .
  -----------------------------------------------------------------------
  

  Basic array size parameters:
  | Number of species                 :        4
  | Number of atoms                   :       13
  | Max. basis fn. angular momentum   :        2
  | Max. atomic/ionic basis occupied n:        2
  | Max. number of basis fn. types    :        2
  | Max. radial fns per species/type  :        3
  | Max. logarithmic grid size        :     1301
  | Max. radial integration grid size :       36
  | Max. angular integration grid size:      302
  | Max. angular grid division number :        8
  | Radial grid for Hartree potential :     1301
  | Number of spin channels           :        1

------------------------------------------------------------
          Reading file control.in.
------------------------------------------------------------
  XC: Using PBE gradient-corrected functionals.
  Spin treatment: No spin polarisation.
  Non-relativistic treatment of kinetic energy.
  Charge =   0.000000E+00: Neutral system requested explicitly.
  Occupation type: Gaussian broadening, width =   0.100000E-01 eV.
  Using pulay charge density mixing.
  Pulay mixing - number of memorized iterations:   10
  Charge density mixing - mixing parameter:     0.2000
  Convergence accuracy of self-consistent charge density:  0.1000E-04
  Convergence accuracy of sum of eigenvalues:  0.1000E-02
  Convergence accuracy of total energy:  0.1000E-05
  Convergence accuracy of forces:  0.1000E-03
  Maximum number of s.-c. iterations  :   100
 
  Reading configuration options for species H                   .
  | Found nuclear charge :   1.0000
  | Found atomic mass :    1.00794000000000      amu
  | Found l_max for Hartree potential  :   4
  | Found cutoff potl. onset [A], width [A], scale factor :    3.50000    1.50000    1.00000
  | Threshold for basis-dependent cutoff potential is   0.100000E-03
  | Found data for basic radial integration grid :    24 points, outermost radius =    5.000 A
  | Found multiplier for basic radial grid :   1
  | Found angular grid specification: user-specified.
  | Specified grid contains     5 separate shells.
  | Check grid settings after all constraints further below.
  | Found free-atom valence shell :  1 s   1.000
  | No ionic wave fns used. Skipping ion_occ.
  | Found hydrogenic basis function :  2 s   2.100
  | Found hydrogenic basis function :  2 p   3.500
  Species H                   : Missing cutoff potential type.
  Defaulting to exp(1/x)/(1-x)^2 type cutoff potential.
  Species H : No 'logarithmic' tag. Using default grid for free atom:
  | Default logarithmic grid data [bohr] : 0.1000E-03 0.1000E+03 0.1012E+01
  Species H : On-site basis accuracy parameter (for Gram-Schmidt orthonormalisation) not specified.
  Using default value basis_acc =  0.1000000E-03.
  Species H                   : Using default innermost maximum threshold i_radial=  2 for radial functions.
  Species H                   : Default cutoff onset for free atom density etc. : 0.35000000E+01 AA.
  Species H                   : Basic radial grid will be enhanced according to radial_multiplier =   1, to contain    24 grid points.
 
  Reading configuration options for species C                   .
  | Found nuclear charge :   6.0000
  | Found atomic mass :    12.0107000000000      amu
  | Found l_max for Hartree potential  :   4
  | Found cutoff potl. onset [A], width [A], scale factor :    3.50000    1.50000    1.00000
  | Threshold for basis-dependent cutoff potential is   0.100000E-03
  | Found data for basic radial integration grid :    34 points, outermost radius =    5.000 A
  | Found multiplier for basic radial grid :   1
  | Found angular grid specification: user-specified.
  | Specified grid contains     5 separate shells.
  | Check grid settings after all constraints further below.
  | Found free-atom valence shell :  2 s   2.000
  | Found free-atom valence shell :  2 p   2.000
  | No ionic wave fns used. Skipping ion_occ.
  | No ionic wave fns used. Skipping ion_occ.
  | Found hydrogenic basis function :  2 p   1.700
  | Found hydrogenic basis function :  3 d   6.000
  | Found hydrogenic basis function :  2 s   4.900
  Species C                   : Missing cutoff potential type.
  Defaulting to exp(1/x)/(1-x)^2 type cutoff potential.
  Species C : No 'logarithmic' tag. Using default grid for free atom:
  | Default logarithmic grid data [bohr] : 0.1000E-03 0.1000E+03 0.1012E+01
  Species C : On-site basis accuracy parameter (for Gram-Schmidt orthonormalisation) not specified.
  Using default value basis_acc =  0.1000000E-03.
  Species C                   : Using default innermost maximum threshold i_radial=  2 for radial functions.
  Species C                   : Default cutoff onset for free atom density etc. : 0.35000000E+01 AA.
  Species C                   : Basic radial grid will be enhanced according to radial_multiplier =   1, to contain    34 grid points.
 
  Reading configuration options for species N                   .
  | Found nuclear charge :   7.0000
  | Found atomic mass :    14.0067000000000      amu
  | Found l_max for Hartree potential  :   4
  | Found cutoff potl. onset [A], width [A], scale factor :    3.50000    1.50000    1.00000
  | Threshold for basis-dependent cutoff potential is   0.100000E-03
  | Found data for basic radial integration grid :    35 points, outermost radius =    5.000 A
  | Found multiplier for basic radial grid :   1
  | Found angular grid specification: user-specified.
  | Specified grid contains     5 separate shells.
  | Check grid settings after all constraints further below.
  | Found free-atom valence shell :  2 s   2.000
  | Found free-atom valence shell :  2 p   3.000
  | No ionic wave fns used. Skipping ion_occ.
  | No ionic wave fns used. Skipping ion_occ.
  | Found hydrogenic basis function :  2 p   1.800
  | Found hydrogenic basis function :  3 d   6.800
  | Found hydrogenic basis function :  3 s   5.800
  Species N                   : Missing cutoff potential type.
  Defaulting to exp(1/x)/(1-x)^2 type cutoff potential.
  Species N : No 'logarithmic' tag. Using default grid for free atom:
  | Default logarithmic grid data [bohr] : 0.1000E-03 0.1000E+03 0.1012E+01
  Species N : On-site basis accuracy parameter (for Gram-Schmidt orthonormalisation) not specified.
  Using default value basis_acc =  0.1000000E-03.
  Species N                   : Using default innermost maximum threshold i_radial=  2 for radial functions.
  Species N                   : Default cutoff onset for free atom density etc. : 0.35000000E+01 AA.
  Species N                   : Basic radial grid will be enhanced according to radial_multiplier =   1, to contain    35 grid points.
 
  Reading configuration options for species O                   .
  | Found nuclear charge :   8.0000
  | Found atomic mass :    15.9994000000000      amu
  | Found l_max for Hartree potential  :   4
  | Found cutoff potl. onset [A], width [A], scale factor :    3.50000    1.50000    1.00000
  | Threshold for basis-dependent cutoff potential is   0.100000E-03
  | Found data for basic radial integration grid :    36 points, outermost radius =    5.000 A
  | Found multiplier for basic radial grid :   1
  | Found angular grid specification: user-specified.
  | Specified grid contains     5 separate shells.
  | Check grid settings after all constraints further below.
  | Found free-atom valence shell :  2 s   2.000
  | Found free-atom valence shell :  2 p   4.000
  | No ionic wave fns used. Skipping ion_occ.
  | No ionic wave fns used. Skipping ion_occ.
  | Found hydrogenic basis function :  2 p   1.800
  | Found hydrogenic basis function :  3 d   7.600
  | Found hydrogenic basis function :  3 s   6.400
  Species O                   : Missing cutoff potential type.
  Defaulting to exp(1/x)/(1-x)^2 type cutoff potential.
  Species O : No 'logarithmic' tag. Using default grid for free atom:
  | Default logarithmic grid data [bohr] : 0.1000E-03 0.1000E+03 0.1012E+01
  Species O : On-site basis accuracy parameter (for Gram-Schmidt orthonormalisation) not specified.
  Using default value basis_acc =  0.1000000E-03.
  Species O                   : Using default innermost maximum threshold i_radial=  2 for radial functions.
  Species O                   : Default cutoff onset for free atom density etc. : 0.35000000E+01 AA.
  Species O                   : Basic radial grid will be enhanced according to radial_multiplier =   1, to contain    36 grid points.
 
  Finished reading input file 'control.in'. Consistency checks are next.
 
  MPI_IN_PLACE appears to work with this MPI implementation.
  | Keeping use_mpi_in_place .true. (see manual).
  Target number of points in a grid batch is not set. Defaulting to  100
  Method for grid partitioning is not set. Defaulting to parallel hash+maxmin partitioning.
  Batch size limit is not set. Defaulting to    200
  By default, will store active basis functions for each batch.
  If in need of memory, prune_basis_once .false. can be used to disable this option.
  communication_type for Hartree potential was not specified.
  Defaulting to calc_hartree .
  Pulay mixer: Number of initial linear mixing iterations not set.
  Defaulting to    0 iterations.
  Work space size for distributed Hartree potential not set.
  Defaulting to   0.200000E+03 MB.
  Algorithm-dependent basis array size parameters:
  | n_max_pulay                         :       10
  Presetting      1001 iterations before the initial mixing cycle
  is restarted anyway using the sc_init_iter criterion / keyword.
  Presetting a factor      1.000 between actual scf density residual
  and density convergence criterion sc_accuracy_rho below which sc_init_iter
  takes no effect.
  Geometry relaxation not requested: no relaxation will be performed.
  Handling of forces: Unphysical translation and rotation will be removed from forces.
  No accuracy limit for integral partition fn. given. Defaulting to  0.1000E-14.
  No threshold value for u(r) in integrations given. Defaulting to  0.1000E-05.
  No accuracy for occupation numbers given. Defaulting to  0.1000E-12.
  No threshold value for occupation numbers given. Defaulting to  0.0000E+00.
  No accuracy for fermi level given. Defaulting to  0.1000E-19.
  Maximum # of iterations to find E_F not set. Defaulting to  200.
  Preferred method for the eigenvalue solver ('KS_method') not specified in 'control.in'.
  Defaulting to serial version, 'lapack_fast'.
  Will not use alltoall communication since running on < 1024 CPUs.
  Threshold for basis singularities not set.
  Default threshold for basis singularities:  0.1000E-04
  partition_type (choice of integration weights) for integrals was not specified.
  | Using a version of the partition function of Stratmann and coworkers ('stratmann_smoother').
  | At each grid point, the set of atoms used to build the partition table is smoothly restricted to
  | only those atoms whose free-atom density would be non-zero at that grid point.
  Partitioning for Hartree potential was not defined. Using partition_type for integrals.
  | Adjusted default value of keyword multip_moments_threshold to:       0.10000000E-11
  | This value may affect high angular momentum components of the Hartree potential in periodic systems.
  No q(lm)/r^(l+1) cutoff set for long-range Hartree potential.
  | Using default value of  0.100000E-09 .
  | Verify using the multipole_threshold keyword.
  Defaulting to new monopole extrapolation.
  Density update method: automatic selection selected.
------------------------------------------------------------


------------------------------------------------------------
          Reading geometry description geometry.in.
------------------------------------------------------------
  Input structure read successfully.
  The structure contains       13 atoms,  and a total of         48.000 electrons.

  Input geometry:
  | No unit cell requested.
  | Atomic structure:
  |       Atom                x [A]            y [A]            z [A]
  |    1: Species C             0.00000000        0.00000000        0.00000000
  |    2: Species H             1.09300000        0.00000000        0.00000000
  |    3: Species N            -0.47961000        0.00000000       -1.41207000
  |    4: Species H            -0.95636000        0.88367000       -1.59558000
  |    5: Species H             0.32296000       -0.10170000       -2.02986000
  |    6: Species C            -0.49584000        1.26211000        0.72868000
  |    7: Species H            -1.58789000        1.28919000        0.74431000
  |    8: Species H            -0.13407000        1.27425000        1.75947000
  |    9: Species H            -0.13407000        2.16087000        0.22380000
  |   10: Species C            -0.39425000       -1.28861000        0.74398000
  |   11: Species O            -0.10189000       -1.56493000        1.88303000
  |   12: Species O            -1.10210000       -2.13717000        0.06896000
  |   13: Species H            -0.90381000       -2.93352000        0.59001000
  |

  | The smallest distance between any two atoms is         0.97210357 AA.
  |
  | The first atom of this pair is atom number                     12 .
  | The second atom of this pair is atom number                    13 .

  Number of empty states per atom not set in control.in - providing a guess from actual geometry.
  | Total number of empty states used during s.c.f. cycle:       29
  If you use a very high smearing, use empty_states (per atom!) in control.in to increase this value.

  Structure-dependent array size parameters: 
  | Maximum number of distinct radial functions  :       21
  | Maximum number of basis functions            :      119
  | Number of Kohn-Sham states (occupied + empty):       53
------------------------------------------------------------

------------------------------------------------------------
          Preparing all fixed parts of the calculation.
------------------------------------------------------------
  Determining machine precision:
    2.225073858507201E-308
  Setting up grids for atomic and cluster calculations.

  Creating wave function, potential, and density for free atoms.

  Species: H

  List of occupied orbitals and eigenvalues:
    n    l              occ      energy [Ha]    energy [eV]
    1    0           1.0000        -0.237589        -6.4651


  Species: C

  List of occupied orbitals and eigenvalues:
    n    l              occ      energy [Ha]    energy [eV]
    1    0           2.0000       -10.038835      -273.1706
    2    0           2.0000        -0.502696       -13.6791
    2    1           2.0000        -0.191971        -5.2238


  Species: N

  List of occupied orbitals and eigenvalues:
    n    l              occ      energy [Ha]    energy [eV]
    1    0           2.0000       -14.128000      -384.4424
    2    0           2.0000        -0.681077       -18.5330
    2    1           3.0000        -0.259788        -7.0692


  Species: O

  List of occupied orbitals and eigenvalues:
    n    l              occ      energy [Ha]    energy [eV]
    1    0           2.0000       -18.898188      -514.2459
    2    0           2.0000        -0.878505       -23.9053
    2    1           4.0000        -0.331779        -9.0282

  Creating fixed part of basis set: Ionic, confined, hydrogenic.
 
  H                    hydrogenic:
 
  List of hydrogenic basis orbitals: 
    n    l      effective z      eigenvalue [eV]  inner max. [A]     outer max. [A]     outer radius [A]   
    2    0         2.100000       -14.9728           0.193243           1.317208           4.583499
    2    1         3.500000       -41.6669           0.602369           0.602369           3.723403
 
 
  C                    hydrogenic:
 
  List of hydrogenic basis orbitals: 
    n    l      effective z      eigenvalue [eV]  inner max. [A]     outer max. [A]     outer radius [A]   
    2    1         1.700000        -9.7616           1.230570           1.230570           4.607917
    3    2         6.000000       -54.4224           0.792453           0.792453           3.883070
    2    0         4.900000       -81.6679           0.082559           0.562749           3.078220
 
 
  N                    hydrogenic:
 
  List of hydrogenic basis orbitals: 
    n    l      effective z      eigenvalue [eV]  inner max. [A]     outer max. [A]     outer radius [A]   
    2    1         1.800000       -10.9749           1.177451           1.177451           4.573712
    3    2         6.800000       -69.9026           0.704619           0.704619           3.538137
    3    0         5.800000       -50.8545           0.067388           1.191934           4.250239
 
 
  O                    hydrogenic:
 
  List of hydrogenic basis orbitals: 
    n    l      effective z      eigenvalue [eV]  inner max. [A]     outer max. [A]     outer radius [A]   
    2    1         1.800000       -10.9749           1.164242           1.164242           4.578029
    3    2         7.600000       -87.3180           0.624125           0.624125           3.251020
    3    0         6.400000       -61.9207           0.061167           1.081902           4.001998
 

  Adding cutoff potential to free-atom effective potential.
  Creating atomic-like basis functions for current effective potential.

  Species H                   :

  List of atomic basis orbitals and eigenvalues:
    n    l      energy [Ha]    energy [eV]    outer radius [A]
    1    0        -0.237589        -6.4651       4.527807


  Species C                   :

  List of atomic basis orbitals and eigenvalues:
    n    l      energy [Ha]    energy [eV]    outer radius [A]
    1    0       -10.038835      -273.1706       1.934409
    2    0        -0.502696       -13.6791       4.496620
    2    1        -0.191971        -5.2238       4.551928


  Species N                   :

  List of atomic basis orbitals and eigenvalues:
    n    l      energy [Ha]    energy [eV]    outer radius [A]
    1    0       -14.128000      -384.4424       1.637919
    2    0        -0.681077       -18.5330       4.463241
    2    1        -0.259788        -7.0692       4.518138


  Species O                   :

  List of atomic basis orbitals and eigenvalues:
    n    l      energy [Ha]    energy [eV]    outer radius [A]
    1    0       -18.898188      -514.2459       1.415765
    2    0        -0.878505       -23.9053       4.413171
    2    1        -0.331779        -9.0282       4.522403

  Assembling full basis from fixed parts.
  | Species H :   atomic orbital   1 s accepted.
  | Species H :    hydro orbital   2 s accepted.
  | Species H :    hydro orbital   2 p accepted.
  | Species C :   atomic orbital   1 s accepted.
  | Species C :    hydro orbital   2 s accepted.
  | Species C :   atomic orbital   2 s accepted.
  | Species C :   atomic orbital   2 p accepted.
  | Species C :    hydro orbital   2 p accepted.
  | Species C :    hydro orbital   3 d accepted.
  | Species N :   atomic orbital   1 s accepted.
  | Species N :    hydro orbital   3 s accepted.
  | Species N :   atomic orbital   2 s accepted.
  | Species N :   atomic orbital   2 p accepted.
  | Species N :    hydro orbital   2 p accepted.
  | Species N :    hydro orbital   3 d accepted.
  | Species O :   atomic orbital   1 s accepted.
  | Species O :    hydro orbital   3 s accepted.
  | Species O :   atomic orbital   2 s accepted.
  | Species O :   atomic orbital   2 p accepted.
  | Species O :    hydro orbital   2 p accepted.
  | Species O :    hydro orbital   3 d accepted.
 
  Basis size parameters after reduction:
  | Total number of radial functions:       21
  | Total number of basis functions :      119
 
  Per-task memory consumption for arrays in subroutine allocate_ext:
  |           5.250512MB.
  Testing on-site integration grid accuracy.
  |  Species  Function  <phi|h_atom|phi> (log., in eV)  <phi|h_atom|phi> (rad., in eV)
           1        1                 -6.4663192853                 -6.4651273558
           1        2                 13.7111246313                 13.7170609718
           1        3                 25.2673269279                 25.2674696378
           2        4               -273.1705927641               -273.1705631568
           2        5                -10.7109323383                -10.7107120029
           2        6                 17.4381822266                 17.4352413244
           2        7                 -5.2255326521                 -5.2270484734
           2        8                  8.6835629259                  8.6603288385
           2        9                 27.4952418996                 27.4953360207
           3       10               -384.4424306495               -384.4423701208
           3       11                 12.5842251816                 12.5842222903
           3       12                -15.7264628251                -15.7264433455
           3       13                 -7.0696854293                 -7.0701769954
           3       14                  8.8090390882                  8.7901077751
           3       15                 35.9586762123                 35.9588528632
           4       16               -514.2458688638               -514.2457643834
           4       17                 15.1795651126                 15.1795290741
           4       18                -21.5359799773                -21.5360846186
           4       19                 -9.0283069236                 -9.0284644067
           4       20                  8.3027758564                  8.2834874195
           4       21                 45.8339351984                 45.8338762259

  Preparing densities etc. for the partition functions (integrals / Hartree potential).

  Preparations completed.
  max(cpu_time)          :      0.148 s.
  Wall clock time (cpu1) :      0.150 s.
------------------------------------------------------------

------------------------------------------------------------
          Begin self-consistency loop: Initialization.

          Date     :  20200805, Time     :  181622.326
------------------------------------------------------------

  Initializing index lists of integration centers etc. from given atomic structure:
  | Number of centers in hartree potential         :        13
  | Number of centers in hartree multipole         :        13
  | Number of centers in electron density summation:        13
  | Number of centers in basis integrals           :        13
  | Number of centers in integrals                 :        13
  | Number of centers in hamiltonian               :        13
  Partitioning the integration grid into batches with parallel hashing+maxmin method.
  | Number of batches:      954
  | Maximal batch size:     139
  | Minimal batch size:      66
  | Average batch size:      73.004
  | Standard deviation of batch sizes:      17.736

  Integration load balanced across     1 MPI tasks.
  Work distribution over tasks is as follows:
  Task     0 has      69646 integration points.
  Initializing partition tables, free-atom densities, potentials, etc. across the integration grid (initialize_grid_storage).
  | initialize_grid_storage: Actual outermost partition radius vs. multipole_radius_free
  | (-- VB: in principle, multipole_radius_free should be larger, hence this output)
  | Species        1: Confinement radius =              4.999999999999999 AA, multipole_radius_free =              5.054417573612229 AA.
  | Species        1: outer_partition_radius set to              5.054417573612229 AA .
  | Species        2: Confinement radius =              4.999999999999999 AA, multipole_radius_free =              5.019602836301480 AA.
  | Species        2: outer_partition_radius set to              5.019602836301480 AA .
  | Species        3: Confinement radius =              4.999999999999999 AA, multipole_radius_free =              5.043624274424571 AA.
  | Species        3: outer_partition_radius set to              5.043624274424571 AA .
  | Species        4: Confinement radius =              4.999999999999999 AA, multipole_radius_free =              5.048384829883283 AA.
  | Species        4: outer_partition_radius set to              5.048384829883283 AA .
  | Original list of interatomic distances with          13 x         13 entries is created.
  | Net number of integration points:    69646
  | of which are non-zero points    :    59609
  Renormalizing the initial density to the exact electron count on the 3D integration grid.
  | Initial density: Formal number of electrons (from input files) :      48.0000000000
  | Integrated number of electrons on 3D grid     :      47.9999475473
  | Charge integration error                      :      -0.0000524527
  | Normalization factor for density and gradient :       1.0000010928
  Obtaining max. number of non-zero basis functions in each batch (get_n_compute_maxes).
  | Maximal number of non-zero basis functions:      119 in task     0
  Selecting the method for density update.
  Loop over occupied states selected for charge density update.
  Allocating        0.050 MB for KS_eigenvector
  Integrating Hamiltonian matrix: batch-based integration.
  Time summed over all CPUs for integration: real work        0.494 s, elapsed        0.494 s
  Integrating overlap matrix.
  Time summed over all CPUs for integration: real work        0.210 s, elapsed        0.210 s

  Updating Kohn-Sham eigenvalues and eigenvectors using ELSI and the ELPA eigensolver.
  Overlap matrix is nonsingular
  | Lowest eigenvalue of overlap  :  0.44E-02
  | Highest eigenvalue of overlap :  0.61E+01
  Finished singularity check of overlap matrix
  | Time :     0.002 s
  Finished Cholesky decomposition
  | Time :     0.000 s
  Finished transformation to standard eigenproblem
  | Time :     0.000 s
  Starting LAPACK eigensolver
  Finished solving standard eigenproblem
  | Time :     0.002 s
  Finished back-transformation of eigenvectors
  | Time :     0.000 s

  Obtaining occupation numbers and chemical potential using ELSI.
  | Chemical potential (Fermi level):    -9.96292146eV
  Writing Kohn-Sham eigenvalues.

  State    Occupation    Eigenvalue [Ha]    Eigenvalue [eV]
      1       2.00000         -19.007486         -517.22001
      2       2.00000         -18.978221         -516.42366
      3       2.00000         -14.245788         -387.64760
      4       2.00000         -10.166900         -276.65543
      5       2.00000         -10.141238         -275.95711
      6       2.00000         -10.131885         -275.70261
      7       2.00000          -1.187605          -32.31636
      8       2.00000          -1.092999          -29.74203
      9       2.00000          -0.992124          -26.99708
     10       2.00000          -0.859692          -23.39340
     11       2.00000          -0.763734          -20.78225
     12       2.00000          -0.677832          -18.44476
     13       2.00000          -0.620805          -16.89298
     14       2.00000          -0.600110          -16.32982
     15       2.00000          -0.594661          -16.18154
     16       2.00000          -0.569405          -15.49430
     17       2.00000          -0.545797          -14.85190
     18       2.00000          -0.535025          -14.55878
     19       2.00000          -0.518126          -14.09892
     20       2.00000          -0.487027          -13.25267
     21       2.00000          -0.481394          -13.09941
     22       2.00000          -0.428912          -11.67128
     23       2.00000          -0.415568          -11.30818
     24       2.00000          -0.380414          -10.35160
     25       0.00000          -0.150404           -4.09271
     26       0.00000          -0.060597           -1.64893
     27       0.00000          -0.027883           -0.75874
     28       0.00000          -0.022108           -0.60159
     29       0.00000          -0.007742           -0.21066
     30       0.00000           0.008241            0.22425
     31       0.00000           0.019505            0.53075
     32       0.00000           0.028400            0.77281
     33       0.00000           0.035550            0.96736
     34       0.00000           0.081427            2.21575
     35       0.00000           0.096929            2.63758
     36       0.00000           0.134371            3.65642
     37       0.00000           0.148524            4.04154
     38       0.00000           0.195023            5.30684
     39       0.00000           0.207194            5.63803
     40       0.00000           0.234154            6.37165
     41       0.00000           0.258193            7.02580
     42       0.00000           0.264435            7.19566
     43       0.00000           0.297512            8.09571
     44       0.00000           0.310432            8.44728
     45       0.00000           0.340445            9.26398
     46       0.00000           0.362605            9.86700
     47       0.00000           0.380590           10.35639
     48       0.00000           0.401978           10.93838
     49       0.00000           0.447960           12.18961
     50       0.00000           0.479026           13.03496
     51       0.00000           0.505893           13.76604
     52       0.00000           0.513381           13.96980
     53       0.00000           0.550657           14.98415

  Highest occupied state (VBM) at    -10.35159650 eV
  | Occupation number:      2.00000000

  Lowest unoccupied state (CBM) at    -4.09270524 eV
  | Occupation number:      0.00000000

  Overall HOMO-LUMO gap:      6.25889125 eV.
  Calculating total energy contributions from superposition of free atom densities.

  Total energy components:
  | Sum of eigenvalues            :        -188.84549495 Ha       -5138.74737429 eV
  | XC energy correction          :         -41.78593374 Ha       -1137.05310958 eV
  | XC potential correction       :          53.71600985 Ha        1461.68699784 eV
  | Free-atom electrostatic energy:        -146.85568586 Ha       -3996.14653392 eV
  | Hartree energy correction     :           0.00000000 Ha           0.00000000 eV
  | vdW energy correction         :           0.00000000 Ha           0.00000000 eV
  | Entropy correction            :           0.00000000 Ha           0.00000000 eV
  | ---------------------------
  | Total energy                  :        -323.77110470 Ha       -8810.26001994 eV
  | Total energy, T -> 0          :        -323.77110470 Ha       -8810.26001994 eV  <-- do not rely on this value for anything but (periodic) metals
  | Electronic free energy        :        -323.77110470 Ha       -8810.26001994 eV

  Derived energy quantities:
  | Kinetic energy                :         320.48048235 Ha        8720.71763010 eV
  | Electrostatic energy          :        -602.46565332 Ha      -16393.92454046 eV
  | Energy correction for multipole
  | error in Hartree potential    :           0.00000000 Ha           0.00000000 eV
  | Sum of eigenvalues per atom                           :        -395.28825956 eV
  | Total energy (T->0) per atom                          :        -677.71230923 eV  <-- do not rely on this value for anything but (periodic) metals
  | Electronic free energy per atom                       :        -677.71230923 eV
  Initialize hartree_potential_storage
  Max. number of atoms included in rho_multipole:           13

  End scf initialization - timings             :  max(cpu_time)    wall_clock(cpu1)
  | Time for scf. initialization               :        1.143 s           1.146 s
  | Boundary condition initialization          :        0.000 s           0.000 s
  | Integration                                :        0.703 s           0.705 s
  | Solution of K.-S. eqns.                    :        0.004 s           0.004 s
  | Grid partitioning                          :        0.112 s           0.113 s
  | Preloading free-atom quantities on grid    :        0.002 s           0.003 s
  | Free-atom superposition energy             :        0.084 s           0.084 s
  | Total energy evaluation                    :        0.000 s           0.000 s

  Partial memory accounting:
  | Current value for overall tracked memory usage on task 0  :           0.165 MB
  | Peak value for overall tracked memory usage on task 0     :           0.678 MB after allocating wave
  | Largest tracked array allocation on task 0 so far         :           0.132 MB  when allocating H_times_psi
  Note:  These values currently only include a subset of arrays which are explicitly tracked.
  The "true" memory usage will be greater.
------------------------------------------------------------

------------------------------------------------------------
          Begin self-consistency iteration #    1

  Date     :  20200805, Time     :  181623.473
------------------------------------------------------------
  Evaluating new KS density.
  Integration grid: deviation in total charge (<rho> - N_e) =   3.552714E-14
  Pulay mixing of updated and previous charge densities.

  Evaluating partitioned Hartree potential by multipole expansion.
  | Analytical far-field extrapolation by fixed multipoles:
  | Hartree multipole sum: apparent total charge =  -0.160835E-03
  Summing up the Hartree potential.
  Time summed over all CPUs for potential: real work        0.282 s, elapsed        0.282 s
  | RMS charge density error from multipole expansion :   0.585950E-02

  Integrating Hamiltonian matrix: batch-based integration.
  Time summed over all CPUs for integration: real work        0.492 s, elapsed        0.492 s

  Updating Kohn-Sham eigenvalues and eigenvectors using ELSI and the ELPA eigensolver.
  Finished Cholesky decomposition
  | Time :     0.000 s
  Finished transformation to standard eigenproblem
  | Time :     0.000 s
  Starting LAPACK eigensolver
  Finished solving standard eigenproblem
  | Time :     0.002 s
  Finished back-transformation of eigenvectors
  | Time :     0.000 s

  Obtaining occupation numbers and chemical potential using ELSI.
  | Chemical potential (Fermi level):    -4.63553000eV
  Writing Kohn-Sham eigenvalues.

  State    Occupation    Eigenvalue [Ha]    Eigenvalue [eV]
      1       2.00000         -18.900108         -514.29810
      2       2.00000         -18.836703         -512.57278
      3       2.00000         -14.094437         -383.52914
      4       2.00000         -10.111321         -275.14305
      5       2.00000         -10.061919         -273.79876
      6       2.00000         -10.032652         -273.00236
      7       2.00000          -1.134924          -30.88284
      8       2.00000          -1.028115          -27.97643
      9       2.00000          -0.920887          -25.05861
     10       2.00000          -0.793441          -21.59061
     11       2.00000          -0.711863          -19.37077
     12       2.00000          -0.629671          -17.13423
     13       2.00000          -0.558010          -15.18423
     14       2.00000          -0.540269          -14.70146
     15       2.00000          -0.532681          -14.49499
     16       2.00000          -0.506469          -13.78172
     17       2.00000          -0.493841          -13.43809
     18       2.00000          -0.473411          -12.88217
     19       2.00000          -0.453073          -12.32875
     20       2.00000          -0.429695          -11.69260
     21       2.00000          -0.424028          -11.53838
     22       2.00000          -0.364653           -9.92270
     23       2.00000          -0.341460           -9.29160
     24       2.00000          -0.307076           -8.35597
     25       0.00000          -0.111283           -3.02817
     26       0.00000          -0.032203           -0.87628
     27       0.00000          -0.003122           -0.08495
     28       0.00000           0.015057            0.40973
     29       0.00000           0.023789            0.64733
     30       0.00000           0.048397            1.31695
     31       0.00000           0.057674            1.56940
     32       0.00000           0.067172            1.82785
     33       0.00000           0.076439            2.08001
     34       0.00000           0.123290            3.35488
     35       0.00000           0.139599            3.79869
     36       0.00000           0.163592            4.45157
     37       0.00000           0.177592            4.83252
     38       0.00000           0.223144            6.07206
     39       0.00000           0.236260            6.42896
     40       0.00000           0.272403            7.41245
     41       0.00000           0.294348            8.00962
     42       0.00000           0.299238            8.14268
     43       0.00000           0.335807            9.13777
     44       0.00000           0.350383            9.53442
     45       0.00000           0.383074           10.42396
     46       0.00000           0.403609           10.98275
     47       0.00000           0.419710           11.42090
     48       0.00000           0.439365           11.95572
     49       0.00000           0.485522           13.21173
     50       0.00000           0.515359           14.02364
     51       0.00000           0.542592           14.76467
     52       0.00000           0.548222           14.91789
     53       0.00000           0.591020           16.08246

  Highest occupied state (VBM) at     -8.35597224 eV
  | Occupation number:      2.00000000

  Lowest unoccupied state (CBM) at    -3.02816980 eV
  | Occupation number:      0.00000000

  Overall HOMO-LUMO gap:      5.32780244 eV.

  Total energy components:
  | Sum of eigenvalues            :        -185.36141372 Ha       -5043.94070022 eV
  | XC energy correction          :         -42.11534917 Ha       -1146.01695958 eV
  | XC potential correction       :          54.14451698 Ha        1473.34727003 eV
  | Free-atom electrostatic energy:        -146.85568586 Ha       -3996.14653392 eV
  | Hartree energy correction     :          -3.40234427 Ha         -92.58249804 eV
  | vdW energy correction         :           0.00000000 Ha           0.00000000 eV
  | Entropy correction            :           0.00000000 Ha           0.00000000 eV
  | ---------------------------
  | Total energy                  :        -323.59027604 Ha       -8805.33942173 eV
  | Total energy, T -> 0          :        -323.59027604 Ha       -8805.33942173 eV  <-- do not rely on this value for anything but (periodic) metals
  | Electronic free energy        :        -323.59027604 Ha       -8805.33942173 eV

  Derived energy quantities:
  | Kinetic energy                :         322.27354762 Ha        8769.50941838 eV
  | Electrostatic energy          :        -603.74847449 Ha      -16428.83188053 eV
  | Energy correction for multipole
  | error in Hartree potential    :           0.01227672 Ha           0.33406645 eV
  | Sum of eigenvalues per atom                           :        -387.99543848 eV
  | Total energy (T->0) per atom                          :        -677.33380167 eV  <-- do not rely on this value for anything but (periodic) metals
  | Electronic free energy per atom                       :        -677.33380167 eV

  Self-consistency convergence accuracy:
  | Change of charge density      :  0.5814E+00
  | Change of sum of eigenvalues  :  0.9481E+02 eV
  | Change of total energy        :  0.4921E+01 eV

  End self-consistency iteration #     1       :  max(cpu_time)    wall_clock(cpu1)
  | Time for this iteration                    :        1.182 s           1.183 s
  | Charge density update                      :        0.390 s           0.390 s
  | Density mixing                             :        0.005 s           0.006 s
  | Hartree multipole update                   :        0.009 s           0.009 s
  | Hartree multipole summation                :        0.283 s           0.283 s
  | Integration                                :        0.492 s           0.492 s
  | Solution of K.-S. eqns.                    :        0.002 s           0.002 s
  | Total energy evaluation                    :        0.000 s           0.000 s

  Partial memory accounting:
  | Current value for overall tracked memory usage on task 0  :           0.165 MB
  | Peak value for overall tracked memory usage on task 0     :           0.695 MB after allocating gradient_basis_wave
  | Largest tracked array allocation on task 0 so far         :           0.397 MB  when allocating gradient_basis_wave
  Note:  These values currently only include a subset of arrays which are explicitly tracked.
  The "true" memory usage will be greater.
------------------------------------------------------------

------------------------------------------------------------
          Begin self-consistency iteration #    2

  Date     :  20200805, Time     :  181624.659
------------------------------------------------------------
  Evaluating new KS density.
  Integration grid: deviation in total charge (<rho> - N_e) =  -7.105427E-15
  Pulay mixing of updated and previous charge densities.

  Evaluating partitioned Hartree potential by multipole expansion.
  | Analytical far-field extrapolation by fixed multipoles:
  | Hartree multipole sum: apparent total charge =  -0.301353E-03
  Summing up the Hartree potential.
  Time summed over all CPUs for potential: real work        0.282 s, elapsed        0.282 s
  | RMS charge density error from multipole expansion :   0.140257E-01

  Integrating Hamiltonian matrix: batch-based integration.
  Time summed over all CPUs for integration: real work        0.494 s, elapsed        0.494 s

  Updating Kohn-Sham eigenvalues and eigenvectors using ELSI and the ELPA eigensolver.
  Finished Cholesky decomposition
  | Time :     0.000 s
  Finished transformation to standard eigenproblem
  | Time :     0.000 s
  Starting LAPACK eigensolver
  Finished solving standard eigenproblem
  | Time :     0.002 s
  Finished back-transformation of eigenvectors
  | Time :     0.000 s

  Obtaining occupation numbers and chemical potential using ELSI.
  | Chemical potential (Fermi level):    -3.25373774eV
  Highest occupied state (VBM) at     -6.30914387 eV
  | Occupation number:      2.00000000

  Lowest unoccupied state (CBM) at    -1.68468672 eV
  | Occupation number:      0.00000000

  Overall HOMO-LUMO gap:      4.62445715 eV.

  Checking to see if s.c.f. parameters should be adjusted.

  Total energy components:
  | Sum of eigenvalues            :        -181.66431159 Ha       -4943.33743248 eV
  | XC energy correction          :         -42.48026767 Ha       -1155.94689720 eV
  | XC potential correction       :          54.61767305 Ha        1486.22250198 eV
  | Free-atom electrostatic energy:        -146.85568586 Ha       -3996.14653392 eV
  | Hartree energy correction     :          -7.12936064 Ha        -193.99977349 eV
  | vdW energy correction         :           0.00000000 Ha           0.00000000 eV
  | Entropy correction            :           0.00000000 Ha           0.00000000 eV
  | ---------------------------
  | Total energy                  :        -323.51195269 Ha       -8803.20813511 eV
  | Total energy, T -> 0          :        -323.51195269 Ha       -8803.20813511 eV  <-- do not rely on this value for anything but (periodic) metals
  | Electronic free energy        :        -323.51195269 Ha       -8803.20813511 eV

  Derived energy quantities:
  | Kinetic energy                :         323.61146071 Ha        8805.91588601 eV
  | Electrostatic energy          :        -604.64314574 Ha      -16453.17712392 eV
  | Energy correction for multipole
  | error in Hartree potential    :           0.02735228 Ha           0.74429341 eV
  | Sum of eigenvalues per atom                           :        -380.25672558 eV
  | Total energy (T->0) per atom                          :        -677.16985655 eV  <-- do not rely on this value for anything but (periodic) metals
  | Electronic free energy per atom                       :        -677.16985655 eV

  Self-consistency convergence accuracy:
  | Change of charge density      :  0.3627E+00
  | Change of sum of eigenvalues  :  0.1006E+03 eV
  | Change of total energy        :  0.2131E+01 eV

  End self-consistency iteration #     2       :  max(cpu_time)    wall_clock(cpu1)
  | Time for this iteration                    :        1.176 s           1.178 s
  | Charge density update                      :        0.382 s           0.383 s
  | Density mixing                             :        0.007 s           0.007 s
  | Hartree multipole update                   :        0.009 s           0.009 s
  | Hartree multipole summation                :        0.282 s           0.283 s
  | Integration                                :        0.493 s           0.493 s
  | Solution of K.-S. eqns.                    :        0.002 s           0.003 s
  | Total energy evaluation                    :        0.000 s           0.000 s

  Partial memory accounting:
  | Current value for overall tracked memory usage on task 0  :           0.166 MB
  | Peak value for overall tracked memory usage on task 0     :           0.695 MB after allocating gradient_basis_wave
  | Largest tracked array allocation on task 0 so far         :           0.397 MB  when allocating gradient_basis_wave
  Note:  These values currently only include a subset of arrays which are explicitly tracked.
  The "true" memory usage will be greater.
------------------------------------------------------------

------------------------------------------------------------
          Begin self-consistency iteration #    3

  Date     :  20200805, Time     :  181625.839
------------------------------------------------------------
  Evaluating new KS density.
  Integration grid: deviation in total charge (<rho> - N_e) =  -7.105427E-15
  Pulay mixing of updated and previous charge densities.

  Evaluating partitioned Hartree potential by multipole expansion.
  | Analytical far-field extrapolation by fixed multipoles:
  | Hartree multipole sum: apparent total charge =  -0.403818E-03
  Summing up the Hartree potential.
  Time summed over all CPUs for potential: real work        0.282 s, elapsed        0.282 s
  | RMS charge density error from multipole expansion :   0.224334E-01

  Integrating Hamiltonian matrix: batch-based integration.
  Time summed over all CPUs for integration: real work        0.494 s, elapsed        0.494 s

  Updating Kohn-Sham eigenvalues and eigenvectors using ELSI and the ELPA eigensolver.
  Finished Cholesky decomposition
  | Time :     0.000 s
  Finished transformation to standard eigenproblem
  | Time :     0.000 s
  Starting LAPACK eigensolver
  Finished solving standard eigenproblem
  | Time :     0.002 s
  Finished back-transformation of eigenvectors
  | Time :     0.000 s

  Obtaining occupation numbers and chemical potential using ELSI.
  | Chemical potential (Fermi level):    -2.52142315eV
  Highest occupied state (VBM) at     -5.64580015 eV
  | Occupation number:      2.00000000

  Lowest unoccupied state (CBM) at    -0.95530131 eV
  | Occupation number:      0.00000000

  Overall HOMO-LUMO gap:      4.69049884 eV.

  Total energy components:
  | Sum of eigenvalues            :        -180.36557623 Ha       -4907.99704531 eV
  | XC energy correction          :         -42.62958025 Ha       -1160.00989936 eV
  | XC potential correction       :          54.80788913 Ha        1491.39854467 eV
  | Free-atom electrostatic energy:        -146.85568586 Ha       -3996.14653392 eV
  | Hartree energy correction     :          -8.45658523 Ha        -230.11539224 eV
  | vdW energy correction         :           0.00000000 Ha           0.00000000 eV
  | Entropy correction            :           0.00000000 Ha           0.00000000 eV
  | ---------------------------
  | Total energy                  :        -323.49953844 Ha       -8802.87032616 eV
  | Total energy, T -> 0          :        -323.49953844 Ha       -8802.87032616 eV  <-- do not rely on this value for anything but (periodic) metals
  | Electronic free energy        :        -323.49953844 Ha       -8802.87032616 eV

  Derived energy quantities:
  | Kinetic energy                :         323.11628118 Ha        8792.44136544 eV
  | Electrostatic energy          :        -603.98623937 Ha      -16435.30179224 eV
  | Energy correction for multipole
  | error in Hartree potential    :           0.03923465 Ha           1.06762914 eV
  | Sum of eigenvalues per atom                           :        -377.53823425 eV
  | Total energy (T->0) per atom                          :        -677.14387124 eV  <-- do not rely on this value for anything but (periodic) metals
  | Electronic free energy per atom                       :        -677.14387124 eV

  Self-consistency convergence accuracy:
  | Change of charge density      :  0.2013E+00
  | Change of sum of eigenvalues  :  0.3534E+02 eV
  | Change of total energy        :  0.3378E+00 eV

  End self-consistency iteration #     3       :  max(cpu_time)    wall_clock(cpu1)
  | Time for this iteration                    :        1.178 s           1.180 s
  | Charge density update                      :        0.383 s           0.383 s
  | Density mixing                             :        0.008 s           0.009 s
  | Hartree multipole update                   :        0.009 s           0.009 s
  | Hartree multipole summation                :        0.282 s           0.282 s
  | Integration                                :        0.493 s           0.494 s
  | Solution of K.-S. eqns.                    :        0.002 s           0.003 s
  | Total energy evaluation                    :        0.000 s           0.000 s

  Partial memory accounting:
  | Current value for overall tracked memory usage on task 0  :           0.166 MB
  | Peak value for overall tracked memory usage on task 0     :           0.695 MB after allocating gradient_basis_wave
  | Largest tracked array allocation on task 0 so far         :           0.397 MB  when allocating gradient_basis_wave
  Note:  These values currently only include a subset of arrays which are explicitly tracked.
  The "true" memory usage will be greater.
------------------------------------------------------------

------------------------------------------------------------
          Begin self-consistency iteration #    4

  Date     :  20200805, Time     :  181627.021
------------------------------------------------------------
  Evaluating new KS density.
  Integration grid: deviation in total charge (<rho> - N_e) =   7.105427E-15
  Pulay mixing of updated and previous charge densities.

  Evaluating partitioned Hartree potential by multipole expansion.
  | Analytical far-field extrapolation by fixed multipoles:
  | Hartree multipole sum: apparent total charge =  -0.434703E-03
  Summing up the Hartree potential.
  Time summed over all CPUs for potential: real work        0.282 s, elapsed        0.282 s
  | RMS charge density error from multipole expansion :   0.255178E-01

  Integrating Hamiltonian matrix: batch-based integration.
  Time summed over all CPUs for integration: real work        0.493 s, elapsed        0.493 s

  Updating Kohn-Sham eigenvalues and eigenvectors using ELSI and the ELPA eigensolver.
  Finished Cholesky decomposition
  | Time :     0.000 s
  Finished transformation to standard eigenproblem
  | Time :     0.000 s
  Starting LAPACK eigensolver
  Finished solving standard eigenproblem
  | Time :     0.002 s
  Finished back-transformation of eigenvectors
  | Time :     0.000 s

  Obtaining occupation numbers and chemical potential using ELSI.
  | Chemical potential (Fermi level):    -2.43044859eV
  Highest occupied state (VBM) at     -5.45632644 eV
  | Occupation number:      2.00000000

  Lowest unoccupied state (CBM) at    -0.88012635 eV
  | Occupation number:      0.00000000

  Overall HOMO-LUMO gap:      4.57620010 eV.

  Total energy components:
  | Sum of eigenvalues            :        -180.20566452 Ha       -4903.64562633 eV
  | XC energy correction          :         -42.66538650 Ha       -1160.98423679 eV
  | XC potential correction       :          54.85312554 Ha        1492.62949011 eV
  | Free-atom electrostatic energy:        -146.85568586 Ha       -3996.14653392 eV
  | Hartree energy correction     :          -8.62519813 Ha        -234.70358263 eV
  | vdW energy correction         :           0.00000000 Ha           0.00000000 eV
  | Entropy correction            :           0.00000000 Ha           0.00000000 eV
  | ---------------------------
  | Total energy                  :        -323.49880946 Ha       -8802.85048955 eV
  | Total energy, T -> 0          :        -323.49880946 Ha       -8802.85048955 eV  <-- do not rely on this value for anything but (periodic) metals
  | Electronic free energy        :        -323.49880946 Ha       -8802.85048955 eV

  Derived energy quantities:
  | Kinetic energy                :         322.78603119 Ha        8783.45480594 eV
  | Electrostatic energy          :        -603.61945416 Ha      -16425.32105870 eV
  | Energy correction for multipole
  | error in Hartree potential    :           0.04319677 Ha           1.17544405 eV
  | Sum of eigenvalues per atom                           :        -377.20350972 eV
  | Total energy (T->0) per atom                          :        -677.14234535 eV  <-- do not rely on this value for anything but (periodic) metals
  | Electronic free energy per atom                       :        -677.14234535 eV

  Self-consistency convergence accuracy:
  | Change of charge density      :  0.5719E-01
  | Change of sum of eigenvalues  :  0.4351E+01 eV
  | Change of total energy        :  0.1984E-01 eV

  End self-consistency iteration #     4       :  max(cpu_time)    wall_clock(cpu1)
  | Time for this iteration                    :        1.179 s           1.180 s
  | Charge density update                      :        0.383 s           0.383 s
  | Density mixing                             :        0.010 s           0.010 s
  | Hartree multipole update                   :        0.009 s           0.009 s
  | Hartree multipole summation                :        0.282 s           0.283 s
  | Integration                                :        0.493 s           0.493 s
  | Solution of K.-S. eqns.                    :        0.002 s           0.002 s
  | Total energy evaluation                    :        0.000 s           0.000 s

  Partial memory accounting:
  | Current value for overall tracked memory usage on task 0  :           0.166 MB
  | Peak value for overall tracked memory usage on task 0     :           0.696 MB after allocating gradient_basis_wave
  | Largest tracked array allocation on task 0 so far         :           0.397 MB  when allocating gradient_basis_wave
  Note:  These values currently only include a subset of arrays which are explicitly tracked.
  The "true" memory usage will be greater.
------------------------------------------------------------

------------------------------------------------------------
          Begin self-consistency iteration #    5

  Date     :  20200805, Time     :  181628.204
------------------------------------------------------------
  Evaluating new KS density.
  Integration grid: deviation in total charge (<rho> - N_e) =   0.000000E+00
  Pulay mixing of updated and previous charge densities.

  Evaluating partitioned Hartree potential by multipole expansion.
  | Analytical far-field extrapolation by fixed multipoles:
  | Hartree multipole sum: apparent total charge =  -0.428884E-03
  Summing up the Hartree potential.
  Time summed over all CPUs for potential: real work        0.282 s, elapsed        0.282 s
  | RMS charge density error from multipole expansion :   0.252652E-01

  Integrating Hamiltonian matrix: batch-based integration.
  Time summed over all CPUs for integration: real work        0.495 s, elapsed        0.495 s

  Updating Kohn-Sham eigenvalues and eigenvectors using ELSI and the ELPA eigensolver.
  Finished Cholesky decomposition
  | Time :     0.000 s
  Finished transformation to standard eigenproblem
  | Time :     0.000 s
  Starting LAPACK eigensolver
  Finished solving standard eigenproblem
  | Time :     0.001 s
  Finished back-transformation of eigenvectors
  | Time :     0.000 s

  Obtaining occupation numbers and chemical potential using ELSI.
  | Chemical potential (Fermi level):    -2.49824608eV
  Highest occupied state (VBM) at     -5.54192292 eV
  | Occupation number:      2.00000000

  Lowest unoccupied state (CBM) at    -0.95939752 eV
  | Occupation number:      0.00000000

  Overall HOMO-LUMO gap:      4.58252540 eV.

  Total energy components:
  | Sum of eigenvalues            :        -180.38977292 Ha       -4908.65547081 eV
  | XC energy correction          :         -42.64312406 Ha       -1160.37844504 eV
  | XC potential correction       :          54.82424937 Ha        1491.84372945 eV
  | Free-atom electrostatic energy:        -146.85568586 Ha       -3996.14653392 eV
  | Hartree energy correction     :          -8.43417878 Ha        -229.50568174 eV
  | vdW energy correction         :           0.00000000 Ha           0.00000000 eV
  | Entropy correction            :           0.00000000 Ha           0.00000000 eV
  | ---------------------------
  | Total energy                  :        -323.49851225 Ha       -8802.84240207 eV
  | Total energy, T -> 0          :        -323.49851225 Ha       -8802.84240207 eV  <-- do not rely on this value for anything but (periodic) metals
  | Electronic free energy        :        -323.49851225 Ha       -8802.84240207 eV

  Derived energy quantities:
  | Kinetic energy                :         322.68845271 Ha        8780.79956046 eV
  | Electrostatic energy          :        -603.54384091 Ha      -16423.26351748 eV
  | Energy correction for multipole
  | error in Hartree potential    :           0.04258255 Ha           1.15873021 eV
  | Sum of eigenvalues per atom                           :        -377.58888237 eV
  | Total energy (T->0) per atom                          :        -677.14172324 eV  <-- do not rely on this value for anything but (periodic) metals
  | Electronic free energy per atom                       :        -677.14172324 eV

  Self-consistency convergence accuracy:
  | Change of charge density      :  0.2034E-01
  | Change of sum of eigenvalues  : -0.5010E+01 eV
  | Change of total energy        :  0.8087E-02 eV

  End self-consistency iteration #     5       :  max(cpu_time)    wall_clock(cpu1)
  | Time for this iteration                    :        1.181 s           1.184 s
  | Charge density update                      :        0.383 s           0.383 s
  | Density mixing                             :        0.011 s           0.012 s
  | Hartree multipole update                   :        0.009 s           0.009 s
  | Hartree multipole summation                :        0.282 s           0.282 s
  | Integration                                :        0.493 s           0.495 s
  | Solution of K.-S. eqns.                    :        0.002 s           0.002 s
  | Total energy evaluation                    :        0.000 s           0.000 s

  Partial memory accounting:
  | Current value for overall tracked memory usage on task 0  :           0.166 MB
  | Peak value for overall tracked memory usage on task 0     :           0.696 MB after allocating gradient_basis_wave
  | Largest tracked array allocation on task 0 so far         :           0.397 MB  when allocating gradient_basis_wave
  Note:  These values currently only include a subset of arrays which are explicitly tracked.
  The "true" memory usage will be greater.
------------------------------------------------------------

------------------------------------------------------------
          Begin self-consistency iteration #    6

  Date     :  20200805, Time     :  181629.390
------------------------------------------------------------
  Evaluating new KS density.
  Integration grid: deviation in total charge (<rho> - N_e) =  -7.815970E-14
  Pulay mixing of updated and previous charge densities.

  Evaluating partitioned Hartree potential by multipole expansion.
  | Analytical far-field extrapolation by fixed multipoles:
  | Hartree multipole sum: apparent total charge =  -0.431303E-03
  Summing up the Hartree potential.
  Time summed over all CPUs for potential: real work        0.282 s, elapsed        0.282 s
  | RMS charge density error from multipole expansion :   0.255973E-01

  Integrating Hamiltonian matrix: batch-based integration.
  Time summed over all CPUs for integration: real work        0.494 s, elapsed        0.494 s

  Updating Kohn-Sham eigenvalues and eigenvectors using ELSI and the ELPA eigensolver.
  Finished Cholesky decomposition
  | Time :     0.000 s
  Finished transformation to standard eigenproblem
  | Time :     0.000 s
  Starting LAPACK eigensolver
  Finished solving standard eigenproblem
  | Time :     0.002 s
  Finished back-transformation of eigenvectors
  | Time :     0.000 s

  Obtaining occupation numbers and chemical potential using ELSI.
  | Chemical potential (Fermi level):    -2.51142638eV
  Highest occupied state (VBM) at     -5.52892770 eV
  | Occupation number:      2.00000000

  Lowest unoccupied state (CBM) at    -0.98033998 eV
  | Occupation number:      0.00000000

  Overall HOMO-LUMO gap:      4.54858772 eV.

  Total energy components:
  | Sum of eigenvalues            :        -180.41815717 Ha       -4909.42784551 eV
  | XC energy correction          :         -42.63815527 Ha       -1160.24323733 eV
  | XC potential correction       :          54.81779659 Ha        1491.66814050 eV
  | Free-atom electrostatic energy:        -146.85568586 Ha       -3996.14653392 eV
  | Hartree energy correction     :          -8.40425198 Ha        -228.69133219 eV
  | vdW energy correction         :           0.00000000 Ha           0.00000000 eV
  | Entropy correction            :           0.00000000 Ha           0.00000000 eV
  | ---------------------------
  | Total energy                  :        -323.49845369 Ha       -8802.84080845 eV
  | Total energy, T -> 0          :        -323.49845369 Ha       -8802.84080845 eV  <-- do not rely on this value for anything but (periodic) metals
  | Electronic free energy        :        -323.49845369 Ha       -8802.84080845 eV

  Derived energy quantities:
  | Kinetic energy                :         322.60185655 Ha        8778.44315893 eV
  | Electrostatic energy          :        -603.46215497 Ha      -16421.04073005 eV
  | Energy correction for multipole
  | error in Hartree potential    :           0.04281319 Ha           1.16500622 eV
  | Sum of eigenvalues per atom                           :        -377.64829581 eV
  | Total energy (T->0) per atom                          :        -677.14160065 eV  <-- do not rely on this value for anything but (periodic) metals
  | Electronic free energy per atom                       :        -677.14160065 eV

  Self-consistency convergence accuracy:
  | Change of charge density      :  0.1014E-01
  | Change of sum of eigenvalues  : -0.7724E+00 eV
  | Change of total energy        :  0.1594E-02 eV

  End self-consistency iteration #     6       :  max(cpu_time)    wall_clock(cpu1)
  | Time for this iteration                    :        1.181 s           1.183 s
  | Charge density update                      :        0.382 s           0.383 s
  | Density mixing                             :        0.012 s           0.012 s
  | Hartree multipole update                   :        0.009 s           0.009 s
  | Hartree multipole summation                :        0.282 s           0.283 s
  | Integration                                :        0.493 s           0.493 s
  | Solution of K.-S. eqns.                    :        0.002 s           0.003 s
  | Total energy evaluation                    :        0.000 s           0.000 s

  Partial memory accounting:
  | Current value for overall tracked memory usage on task 0  :           0.166 MB
  | Peak value for overall tracked memory usage on task 0     :           0.696 MB after allocating gradient_basis_wave
  | Largest tracked array allocation on task 0 so far         :           0.397 MB  when allocating gradient_basis_wave
  Note:  These values currently only include a subset of arrays which are explicitly tracked.
  The "true" memory usage will be greater.
------------------------------------------------------------

------------------------------------------------------------
          Begin self-consistency iteration #    7

  Date     :  20200805, Time     :  181630.575
------------------------------------------------------------
  Evaluating new KS density.
  Integration grid: deviation in total charge (<rho> - N_e) =  -7.105427E-15
  Pulay mixing of updated and previous charge densities.

  Evaluating partitioned Hartree potential by multipole expansion.
  | Analytical far-field extrapolation by fixed multipoles:
  | Hartree multipole sum: apparent total charge =  -0.432926E-03
  Summing up the Hartree potential.
  Time summed over all CPUs for potential: real work        0.282 s, elapsed        0.282 s
  | RMS charge density error from multipole expansion :   0.257553E-01

  Integrating Hamiltonian matrix: batch-based integration.
  Time summed over all CPUs for integration: real work        0.493 s, elapsed        0.493 s

  Updating Kohn-Sham eigenvalues and eigenvectors using ELSI and the ELPA eigensolver.
  Finished Cholesky decomposition
  | Time :     0.000 s
  Finished transformation to standard eigenproblem
  | Time :     0.000 s
  Starting LAPACK eigensolver
  Finished solving standard eigenproblem
  | Time :     0.002 s
  Finished back-transformation of eigenvectors
  | Time :     0.000 s

[...]
  |   Hirshfeld dipole moment :      0.06752254
  |   Hirshfeld second moments:     -0.00130094      -0.01879811      -0.01650957
  |                                 -0.01879811      -0.00985768       0.00978401
  |                                 -0.01650957       0.00978401      -0.02270911
  ----------------------------------------------------------------------
  | Atom    12: O
  |   Hirshfeld charge        :     -0.14619629
  |   Free atom volume        :     23.61338643
  |   Hirshfeld volume        :     21.08580540
  |   Hirshfeld dipole vector :      0.02202458      -0.00430418       0.04502148
  |   Hirshfeld dipole moment :      0.05030449
  |   Hirshfeld second moments:      0.04933275       0.00186819      -0.01543912
  |                                  0.00186819       0.09820331      -0.00167520
  |                                 -0.01543912      -0.00167520       0.01413918
  ----------------------------------------------------------------------
  | Atom    13: H
  |   Hirshfeld charge        :      0.16937223
  |   Free atom volume        :      9.95071624
  |   Hirshfeld volume        :      6.41876346
  |   Hirshfeld dipole vector :      0.01240920      -0.11001902       0.03318028
  |   Hirshfeld dipole moment :      0.11558159
  |   Hirshfeld second moments:      0.11522511       0.00158242      -0.01438026
  |                                  0.00158242       0.12231857       0.00120729
  |                                 -0.01438026       0.00120729       0.08272495
  ----------------------------------------------------------------------


  Total energy components:
  | Sum of eigenvalues            :        -180.40742685 Ha       -4909.13585881 eV
  | XC energy correction          :         -42.63601988 Ha       -1160.18513044 eV
  | XC potential correction       :          54.81511045 Ha        1491.59504674 eV
  | Free-atom electrostatic energy:        -146.85568586 Ha       -3996.14653392 eV
  | Hartree energy correction     :          -8.41441116 Ha        -228.96777732 eV
  | vdW energy correction         :          -0.00323391 Ha          -0.08799922 eV
  | Entropy correction            :           0.00000000 Ha           0.00000000 eV
  | ---------------------------
  | Total energy                  :        -323.50166721 Ha       -8802.92825296 eV
  | Total energy, T -> 0          :        -323.50166721 Ha       -8802.92825296 eV  <-- do not rely on this value for anything but (periodic) metals
  | Electronic free energy        :        -323.50166721 Ha       -8802.92825296 eV

  Derived energy quantities:
  | Kinetic energy                :         322.56321977 Ha        8777.39179883 eV
  | Electrostatic energy          :        -603.42563320 Ha      -16420.04692213 eV
  | Energy correction for multipole
  | error in Hartree potential    :           0.04292853 Ha           1.16814475 eV
  | Sum of eigenvalues per atom                           :        -377.62583529 eV
  | Total energy (T->0) per atom                          :        -677.14832715 eV  <-- do not rely on this value for anything but (periodic) metals
  | Electronic free energy per atom                       :        -677.14832715 eV

  atomic forces [eV/Ang]:
  -----------------------
  atom #    1
   Hellmann-Feynman              :  0.252768E+00  0.238081E+00  0.624127E+00
   Ionic forces                  :  0.000000E+00  0.000000E+00  0.000000E+00
   Multipole                     :  0.197118E+00  0.538095E+00 -0.306816E+00
   Pulay + GGA                   : -0.111016E+01 -0.423990E+00 -0.988740E+00
   Van der Waals                 :  0.187367E-02  0.116589E-02 -0.151203E-02
   ----------------------------------------------------------------
   Total forces(   1)            : -0.658396E+00  0.353352E+00 -0.672941E+00
  atom #    2
   Hellmann-Feynman              :  0.292068E+00 -0.905910E-01  0.195035E+00
   Ionic forces                  :  0.000000E+00  0.000000E+00  0.000000E+00
   Multipole                     :  0.175236E+00  0.465453E-01 -0.196651E-02
   Pulay + GGA                   : -0.123140E+00  0.191149E-01  0.358700E-01
   Van der Waals                 :  0.617854E-02 -0.500193E-02 -0.500171E-02
   ----------------------------------------------------------------
   Total forces(   2)            :  0.350343E+00 -0.299327E-01  0.223937E+00
  atom #    3
   Hellmann-Feynman              : -0.734964E+01 -0.879074E+01 -0.492298E+00
   Ionic forces                  :  0.000000E+00  0.000000E+00  0.000000E+00
   Multipole                     : -0.149235E+00  0.108097E+00 -0.857743E+00
   Pulay + GGA                   :  0.760723E+01  0.855215E+01  0.205467E+01
   Van der Waals                 :  0.309789E-02 -0.812766E-02 -0.651684E-02
   ----------------------------------------------------------------
   Total forces(   3)            :  0.111455E+00 -0.138623E+00  0.698115E+00
  atom #    4
   Hellmann-Feynman              :  0.185301E+00  0.113303E+00 -0.172889E+00
   Ionic forces                  :  0.000000E+00  0.000000E+00  0.000000E+00
   Multipole                     : -0.405318E-01  0.688489E-01 -0.864522E-01
   Pulay + GGA                   :  0.240557E-01 -0.228455E+00  0.397644E-01
   Van der Waals                 : -0.987914E-03 -0.759931E-02 -0.551530E-02
   ----------------------------------------------------------------
   Total forces(   4)            :  0.167837E+00 -0.539022E-01 -0.225092E+00
  atom #    5
   Hellmann-Feynman              :  0.250395E-01  0.190871E+00 -0.242605E+00
   Ionic forces                  :  0.000000E+00  0.000000E+00  0.000000E+00
   Multipole                     :  0.387216E-01  0.738285E-02 -0.114711E+00
   Pulay + GGA                   : -0.197905E+00 -0.572117E-01  0.122608E+00
   Van der Waals                 : -0.371685E-02  0.537725E-03  0.548703E-02
   ----------------------------------------------------------------
   Total forces(   5)            : -0.137861E+00  0.141580E+00 -0.229220E+00
  atom #    6
   Hellmann-Feynman              :  0.300317E-01 -0.517686E+00  0.269818E+00
   Ionic forces                  :  0.000000E+00  0.000000E+00  0.000000E+00
   Multipole                     : -0.317763E-01  0.610693E+00  0.267635E+00
   Pulay + GGA                   :  0.245311E+00 -0.546146E+00 -0.346677E+00
   Van der Waals                 : -0.191403E-02  0.553385E-02 -0.296383E-02
   ----------------------------------------------------------------
   Total forces(   6)            :  0.241652E+00 -0.447605E+00  0.187811E+00
  atom #    7
   Hellmann-Feynman              : -0.236113E+00 -0.570760E-01 -0.396155E-01
   Ionic forces                  :  0.000000E+00  0.000000E+00  0.000000E+00
   Multipole                     : -0.121493E+00  0.490406E-01  0.274726E-01
   Pulay + GGA                   :  0.111873E+00 -0.678527E-02  0.142378E-01
   Van der Waals                 : -0.325297E-02  0.368556E-02  0.950963E-02
   ----------------------------------------------------------------
   Total forces(   7)            : -0.248985E+00 -0.111351E-01  0.116045E-01
  atom #    8
   Hellmann-Feynman              :  0.142154E-01 -0.734021E-02  0.190540E+00
   Ionic forces                  :  0.000000E+00  0.000000E+00  0.000000E+00
   Multipole                     :  0.185846E-01  0.632753E-01  0.115226E+00
   Pulay + GGA                   : -0.494771E-01 -0.464769E-01 -0.113678E+00
   Van der Waals                 : -0.282331E-02  0.115347E-01  0.736149E-03
   ----------------------------------------------------------------
   Total forces(   8)            : -0.195005E-01  0.209928E-01  0.192825E+00
  atom #    9
   Hellmann-Feynman              :  0.135844E+00  0.562363E-01 -0.169150E+00
   Ionic forces                  :  0.000000E+00  0.000000E+00  0.000000E+00
   Multipole                     :  0.158053E-01  0.127435E+00 -0.109388E-01
   Pulay + GGA                   : -0.294980E-01 -0.820911E-01  0.596493E-01
   Van der Waals                 : -0.166249E-03  0.590799E-02  0.701729E-02
   ----------------------------------------------------------------
   Total forces(   9)            :  0.121985E+00  0.107488E+00 -0.113422E+00
  atom #   10
   Hellmann-Feynman              :  0.212248E+01  0.511447E+01  0.248376E+00
   Ionic forces                  :  0.000000E+00  0.000000E+00  0.000000E+00
   Multipole                     : -0.415057E-01 -0.226607E+00  0.274607E+00
   Pulay + GGA                   : -0.157104E+01 -0.283494E+01 -0.102975E+00
   Van der Waals                 :  0.192200E-02 -0.111888E-01 -0.184104E-02
   ----------------------------------------------------------------
   Total forces(  10)            :  0.511852E+00  0.204173E+01  0.418167E+00
  atom #   11
   Hellmann-Feynman              :  0.423040E+01 -0.238717E+01  0.143740E+02
   Ionic forces                  :  0.000000E+00  0.000000E+00  0.000000E+00
   Multipole                     :  0.120368E+00 -0.565371E+00  0.777762E+00
   Pulay + GGA                   : -0.312802E+01  0.334229E+01 -0.134973E+02
   Van der Waals                 : -0.308705E-02 -0.119354E-01  0.257666E-02
   ----------------------------------------------------------------
   Total forces(  11)            :  0.121967E+01  0.377811E+00  0.165705E+01
  atom #   12
   Hellmann-Feynman              : -0.782346E+01  0.915077E+00 -0.142490E+02
   Ionic forces                  :  0.000000E+00  0.000000E+00  0.000000E+00
   Multipole                     : -0.946717E+00 -0.913266E+00 -0.716560E+00
   Pulay + GGA                   :  0.786159E+01 -0.161507E+01  0.126148E+02
   Van der Waals                 :  0.203251E-02  0.105564E-01  0.522637E-03
   ----------------------------------------------------------------
   Total forces(  12)            : -0.906556E+00 -0.160270E+01 -0.235022E+01
  atom #   13
   Hellmann-Feynman              : -0.731687E+00 -0.101125E+01  0.313841E+00
   Ionic forces                  :  0.000000E+00  0.000000E+00  0.000000E+00
   Multipole                     :  0.318267E-01 -0.746228E-01  0.617639E-01
   Pulay + GGA                   : -0.538021E-01  0.318109E+00 -0.173335E+00
   Van der Waals                 :  0.843767E-03  0.493103E-02 -0.249864E-02
   ----------------------------------------------------------------
   Total forces(  13)            : -0.752819E+00 -0.762829E+00  0.199772E+00

  Timings for VdW correction (Tkatchenko-Scheffler 2009 or later):
  | CPU time:        0.089 s, Wall clock time:        0.090 s.
  Removing unitary transformations (pure translations, rotations) from forces on atoms.
  Atomic forces before filtering:
  | Net force on center of mass :   0.676816E-03 -0.378122E-02 -0.162004E-02 eV/A
  | Net torque on center of mass:  -0.958514E-02  0.481400E-02  0.162872E-02 eV
  Atomic forces after filtering:
  | Net force on center of mass :  -0.356812E-15 -0.267609E-15 -0.178406E-15 eV/A
  | Net torque on center of mass:   0.113290E-14 -0.107390E-14 -0.755268E-15 eV

  Energy and forces in a compact form:
  | Total energy uncorrected      :         -0.880292825295692E+04 eV
  | Total energy corrected        :         -0.880292825295692E+04 eV  <-- do not rely on this value for anything but (periodic) metals
  | Electronic free energy        :         -0.880292825295692E+04 eV
  Total atomic forces (unitary forces cleaned) [eV/Ang]:
  |   1         -0.658419117383599E+00          0.353655013175599E+00         -0.672723838342556E+00
  |   2          0.350320243698121E+00         -0.296737424294077E-01          0.224368923040687E+00
  |   3          0.111710078549954E+00         -0.138003730110511E+00          0.698237863110521E+00
  |   4          0.168163804223700E+00         -0.532252658130601E-01         -0.224877478564319E+00
  |   5         -0.137488721745970E+00          0.142296048588985E+00         -0.228961435322011E+00
  |   6          0.241537195755766E+00         -0.447435027842951E+00          0.188195900192358E+00
  |   7         -0.249101356107626E+00         -0.109239335362427E-01          0.117802315365623E-01
  |   8         -0.198171805490408E-01          0.209320320506356E-01          0.193283068873608E+00
  |   9          0.122005586865766E+00          0.107749588460078E+00         -0.112778020893780E+00
  |  10          0.511630876548992E+00          0.204188986642236E+01          0.418035638860935E+00
  |  11          0.121921374337624E+01          0.377723308266295E+00          0.165691641991881E+01
  |  12         -0.906678813962086E+00         -0.160237111344164E+01         -0.235067236630217E+01
  |  13         -0.753076339270223E+00         -0.762613043790138E+00          0.199195093891352E+00

  ------------------------------------ 
  Start decomposition of the XC Energy 
  ------------------------------------ 
  X and C from original XC functional choice 
  Hartree-Fock Energy :          0.000000000 Ha              0.000000000 eV
  X Energy            :        -41.035888973 Ha          -1116.643353156 eV
  C Energy            :         -1.600130904 Ha            -43.541777281 eV
  Total XC Energy     :        -42.636019878 Ha          -1160.185130437 eV
  ------------------------------------ 
  LDA X and C from self-consistent density 
  X Energy LDA        :        -37.254154567 Ha          -1013.737124157 eV
  C Energy LDA        :         -3.138421429 Ha            -85.400792240 eV
  ------------------------------------ 
  End decomposition of the XC Energy 
  ------------------------------------ 

------------------------------------------------------------

------------------------------------------------------------------------------
  Final output of selected total energy values:

  The following output summarizes some interesting total energy values
  at the end of a run (AFTER all relaxation, molecular dynamics, etc.).

  | Total energy of the DFT / Hartree-Fock s.c.f. calculation      :          -8802.928252957 eV
  | Final zero-broadening corrected energy (caution - metals only) :          -8802.928252957 eV
  | For reference only, the value of 1 Hartree used in FHI-aims is :             27.211384500 eV

  Before relying on these values, please be sure to understand exactly which
  total energy value is referred to by a given number. Different objects may
  all carry the same name 'total energy'. Definitions:

  Total energy of the DFT / Hartree-Fock s.c.f. calculation:
  | Note that this energy does not include ANY quantities calculated after the
  | s.c.f. cycle, in particular not ANY RPA, MP2, etc. many-body perturbation terms.

  Final zero-broadening corrected energy:
  | For metallic systems only, a broadening of the occupation numbers at the Fermi
  | level can be extrapolated back to zero broadening by an electron-gas inspired
  | formula. For all systems that are not real metals, this value can be
  | meaningless and should be avoided.

------------------------------------------------------------------------------
  Methods described in the following list of references were used in this FHI-aims run.
  If you publish the results, please make sure to cite these reference if they apply.
  FHI-aims is an academic code, and for our developers (often, Ph.D. students
  and postdocs), scientific credit in the community is essential.
  Thank you for helping us!

  For any use of FHI-aims, please cite:

    Volker Blum, Ralf Gehrke, Felix Hanke, Paula Havu, Ville Havu,
    Xinguo Ren, Karsten Reuter, and Matthias Scheffler
    'Ab initio molecular simulations with numeric atom-centered orbitals'
    Computer Physics Communications 180, 2175-2196 (2009)
    http://dx.doi.org/10.1016/j.cpc.2009.06.022


  The scalable eigensolver library ELPA was used in your run.
  ELPA is essential especially for large systems on hundreds or thousands of CPUs.
  For ELPA, please cite:

    Andreas Marek, Volker Blum, Rainer Johanni, Ville Havu, Bruno Lang,
    Thomas Auckenthaler, Alexander Heinecke, Hans-Joachim Bungartz, and Hermann Lederer,
    'The ELPA Library - Scalable Parallel Eigenvalue Solutions
    for Electronic Structure Theory and Computational Science'
    The Journal of Physics: Condensed Matter 26, 213201 (2014).
    http://dx.doi.org/10.1088/0953-8984/26/21/213201


  The ELSI infrastructure was used in your run to solve the Kohn-Sham electronic structure.
  Please check out http://elsi-interchange.org to learn more.
  If scalability is important for your project, please acknowledge ELSI by citing:

    V. W-z. Yu, F. Corsetti, A. Garcia, W. P. Huhn, M. Jacquelin, W. Jia,
    B. Lange, L. Lin, J. Lu, W. Mi, A. Seifitokaldani, A. Vazquez-Mayagoitia,
    C. Yang, H. Yang, and V. Blum
    'ELSI: A unified software interface for Kohn-Sham electronic structure solvers'
    Computer Physics Communications 222, 267-285 (2018).
    http://dx.doi.org/10.1016/j.cpc.2017.09.007


  For the real-space grid partitioning and parallelization used in this calculation, please cite:

    Ville Havu, Volker Blum, Paula Havu, and Matthias Scheffler,
    'Efficient O(N) integration for all-electron electronic structure calculation'
    'using numerically tabulated basis functions'
    Journal of Computational Physics 228, 8367-8379 (2009).
    http://dx.doi.org/10.1016/j.jcp.2009.08.008

  Of course, there are many other important community references, e.g., those cited in the
  above references. Our list is limited to references that describe implementations in the
  FHI-aims code. The reason is purely practical (length of this list) - please credit others as well.

------------------------------------------------------------
          Leaving FHI-aims.
          Date     :  20200805, Time     :  181643.666

          Computational steps:
          | Number of self-consistency cycles          :           15
          | Number of SCF (re)initializations          :            1

          Detailed time accounting                     :  max(cpu_time)    wall_clock(cpu1)
          | Total time                                 :       21.427 s          21.508 s
          | Preparation time                           :        0.148 s           0.150 s
          | Boundary condition initalization           :        0.000 s           0.000 s
          | Grid partitioning                          :        0.112 s           0.113 s
          | Preloading free-atom quantities on grid    :        0.002 s           0.003 s
          | Free-atom superposition energy             :        0.084 s           0.084 s
          | Total time for integrations                :        8.110 s           8.113 s
          | Total time for solution of K.-S. equations :        0.034 s           0.040 s
          | Total time for density & force components  :        6.702 s           6.724 s
          | Total time for mixing                      :        0.201 s           0.204 s
          | Total time for Hartree multipole update    :        0.132 s           0.134 s
          | Total time for Hartree multipole sum       :        5.505 s           5.512 s
          | Total time for total energy evaluation     :        0.002 s           0.002 s
          | Total time for vdW correction              :        0.089 s           0.090 s

          Partial memory accounting:
          | Residual value for overall tracked memory usage across tasks :           0.000 MB (should be 0.000 MB)
          | Peak values for overall tracked memory usage (after allocating hessian_basis_wave):
          |   Minimum:        1.622 MB (on task 1)
          |   Maximum:        1.622 MB (on task 1)
          |   Average:        1.622 MB
          | Largest tracked array allocation (hessian_basis_wave):
          |   Minimum:        0.794 MB (on task 1)
          |   Maximum:        0.794 MB (on task 1)
          |   Average:        0.794 MB
          Note:  These values currently only include a subset of arrays which are explicitly tracked.
          The "true" memory usage will be greater.

          Have a nice day.
------------------------------------------------------------
