  MPI-parallelism will be employed.
------------------------------------------------------------
          Invoking FHI-aims ...
          Version 171221_1
          Compiled on 2019/09/09 at 14:39:39 on host puhti-login2.bullx.

          When using FHI-aims, please cite the following reference:

          Volker Blum, Ralf Gehrke, Felix Hanke, Paula Havu,
          Ville Havu, Xinguo Ren, Karsten Reuter, and Matthias Scheffler,
          'Ab Initio Molecular Simulations with Numeric Atom-Centered Orbitals',
          Computer Physics Communications 180, 2175-2196 (2009)

          For any questions about FHI-aims, please visit the aimsclub website
          with its forums and wiki. Contributions to both the forums and the
          wiki are warmly encouraged - they are for you, and everyone is welcome there.

------------------------------------------------------------



  Date     :  20200805, Time     :  182601.389
  Time zero on CPU 1             :   0.117700000000000E-01  s.
  Internal wall clock time zero  :           365883961.389  s.

  FHI-aims created a unique identifier for this run for later identification
  aims_uuid : F66F6399-2D50-4B7F-A692-D92365079917

  Using        1 parallel tasks.
  Task        0 on host r16c03.bullx reporting.

  Performing system and environment tests:
  | Environment variable OMP_NUM_THREADS correctly set to 1.
  | Stacksize not measured: no C compiler
  | Checking for scalapack...
  | Testing pdtran()...
  | All pdtran() tests passed.

  Obtaining array dimensions for all initial allocations:
  
  -----------------------------------------------------------------------
  Parsing control.in (first pass over file, find array dimensions only).
  The contents of control.in will be repeated verbatim below
  unless switched off by setting 'verbatim_writeout .false.' .
  in the first line of control.in .
  -----------------------------------------------------------------------
  
  #########################################################################################
  #
  #  Volker Blum, FHI 2009 : Test run input file control.in for simple H2O
  #
  #########################################################################################
  #
  #  Physical model
  #
    xc                 pbe
    vdw_correction_hirshfeld
    spin               none
    relativistic       none
    charge             0.
  #
  #  SCF convergence
  #
    occupation_type    gaussian 0.01
    mixer              pulay
      n_max_pulay        10
      charge_mix_param   0.2
    sc_accuracy_rho    1E-5
    sc_accuracy_eev    1E-3
    sc_accuracy_etot   1E-6
    sc_accuracy_forces 1E-4
    sc_iter_limit      100
  #
  #  Relaxation
  #
  #  relax_geometry   bfgs 1.e-3
  #
  ################################################################################
  #
  #  FHI-aims code project
  #  VB, Fritz-Haber Institut, 2009
  #
  #  Suggested "light" defaults for H atom (to be pasted into control.in file)
  #  Be sure to double-check any results obtained with these settings for post-processing,
  #  e.g., with the "tight" defaults and larger basis sets.
  #
  ################################################################################
    species        H
  #     global species definitions
      nucleus             1
      mass                1.00794
  #
      l_hartree           4
  #
      cut_pot             3.5  1.5  1.0
      basis_dep_cutoff    1e-4
  #
      radial_base         24 5.0
      radial_multiplier   1
      angular_grids       specified
        division   0.2421   50
        division   0.3822  110
        division   0.4799  194
        division   0.5341  302
  #      division   0.5626  434
  #      division   0.5922  590
  #      division   0.6542  770
  #      division   0.6868 1202
  #      outer_grid  770
        outer_grid  302
  ################################################################################
  #
  #  Definition of "minimal" basis
  #
  ################################################################################
  #     valence basis states
      valence      1  s   1.
  #     ion occupancy
      ion_occ      1  s   0.5
  ################################################################################
  #
  #  Suggested additional basis functions. For production calculations,
  #  uncomment them one after another (the most important basis functions are
  #  listed first).
  #
  #  Basis constructed for dimers: 0.5 A, 0.7 A, 1.0 A, 1.5 A, 2.5 A
  #
  ################################################################################
  #  "First tier" - improvements: -1014.90 meV to -62.69 meV
       hydro 2 s 2.1
       hydro 2 p 3.5
  #  "Second tier" - improvements: -12.89 meV to -1.83 meV
  #     hydro 1 s 0.85
  #     hydro 2 p 3.7
  #     hydro 2 s 1.2
  #     hydro 3 d 7
  #  "Third tier" - improvements: -0.25 meV to -0.12 meV
  #     hydro 4 f 11.2
  #     hydro 3 p 4.8
  #     hydro 4 d 9
  #     hydro 3 s 3.2
  ################################################################################
  #
  #  FHI-aims code project
  #  VB, Fritz-Haber Institut, 2009
  #
  #  Suggested "light" defaults for C atom (to be pasted into control.in file)
  #  Be sure to double-check any results obtained with these settings for post-processing,
  #  e.g., with the "tight" defaults and larger basis sets.
  #
  ################################################################################
    species        C
  #     global species definitions
      nucleus             6
      mass                12.0107
  #
      l_hartree           4
  #
      cut_pot             3.5  1.5  1.0
      basis_dep_cutoff    1e-4
  #
      radial_base         34 5.0
      radial_multiplier   1
      angular_grids specified
        division   0.3326   50
        division   0.5710  110
        division   0.7727  194
        division   0.8772  302
  #      division   0.9334  434
  #      division   0.9625  590
  #      division   0.9924  770
  #      division   1.0230  974
  #      division   1.4589 1202
  #     outer_grid  974
       outer_grid 302
  ################################################################################
  #
  #  Definition of "minimal" basis
  #
  ################################################################################
  #     valence basis states
      valence      2  s   2.
      valence      2  p   2.
  #     ion occupancy
      ion_occ      2  s   1.
      ion_occ      2  p   1.
  ################################################################################
  #
  #  Suggested additional basis functions. For production calculations,
  #  uncomment them one after another (the most important basis functions are
  #  listed first).
  #
  #  Constructed for dimers: 1.0 A, 1.25 A, 1.5 A, 2.0 A, 3.0 A
  #
  ################################################################################
  #  "First tier" - improvements: -1214.57 meV to -155.61 meV
       hydro 2 p 1.7
       hydro 3 d 6
       hydro 2 s 4.9
  #  "Second tier" - improvements: -67.75 meV to -5.23 meV
  #     hydro 4 f 9.8
  #     hydro 3 p 5.2
  #     hydro 3 s 4.3
  #     hydro 5 g 14.4
  #     hydro 3 d 6.2
  #  "Third tier" - improvements: -2.43 meV to -0.60 meV
  #     hydro 2 p 5.6
  #     hydro 2 s 1.4
  #     hydro 3 d 4.9
  #     hydro 4 f 11.2
  #  "Fourth tier" - improvements: -0.39 meV to -0.18 meV
  #     hydro 2 p 2.1
  #     hydro 5 g 16.4
  #     hydro 4 d 13.2
  #     hydro 3 s 13.6
  #     hydro 4 f 17.6
  #  Further basis functions - improvements: -0.08 meV and below
  #     hydro 3 s 2
  #     hydro 3 p 6
  #     hydro 4 d 20
  ################################################################################
  #
  #  FHI-aims code project
  #  VB, Fritz-Haber Institut, 2009
  #
  #  Suggested "light" defaults for N atom (to be pasted into control.in file)
  #  Be sure to double-check any results obtained with these settings for post-processing,
  #  e.g., with the "tight" defaults and larger basis sets.
  #
  ################################################################################
    species        N
  #     global species definitions
      nucleus             7
      mass                14.0067
  #
      l_hartree           4
  #
      cut_pot             3.5  1.5  1.0
      basis_dep_cutoff    1e-4
  #
      radial_base         35 5.0
      radial_multiplier   1
      angular_grids       specified
        division   0.2599   50
        division   0.4601  110
        division   0.5885  194
        division   0.6503  302
  #      division   0.6939  434
  #      division   0.7396  590
  #      division   0.7632  770
  #      division   0.8122  974
  #      division   1.1604 1202
  #      outer_grid  974
        outer_grid  302
  ################################################################################
  #
  #  Definition of "minimal" basis
  #
  ################################################################################
  #     valence basis states
      valence      2  s   2.
      valence      2  p   3.
  #     ion occupancy
      ion_occ      2  s   1.
      ion_occ      2  p   2.
  ################################################################################
  #
  #  Suggested additional basis functions. For production calculations,
  #  uncomment them one after another (the most important basis functions are
  #  listed first).
  #
  #  Constructed for dimers: 1.0 A, 1.1 A, 1.5 A, 2.0 A, 3.0 A
  #
  ################################################################################
  #  "First tier" - improvements: -1193.42 meV to -220.60 meV
       hydro 2 p 1.8
       hydro 3 d 6.8
       hydro 3 s 5.8
  #  "Second tier" - improvements: -80.21 meV to -6.86 meV
  #     hydro 4 f 10.8
  #     hydro 3 p 5.8
  #     hydro 1 s 0.8
  #     hydro 5 g 16
  #     hydro 3 d 4.9
  #  "Third tier" - improvements: -4.29 meV to -0.53 meV
  #     hydro 3 s 16
  #     ionic 2 p auto
  #     hydro 3 d 6.6
  #     hydro 4 f 11.6
  #  "Fourth tier" - improvements: -0.75 meV to -0.25 meV
  #     hydro 2 p 4.5
  #     hydro 2 s 2.4
  #     hydro 5 g 14.4
  #     hydro 4 d 14.4
  #     hydro 4 f 16.8
  # Further basis functions - -0.21 meV and below
  #     hydro 3 p 14.8
  #     hydro 3 s 4.4
  #     hydro 3 d 19.6
  #     hydro 5 g 12.8
  ################################################################################
  #
  #  FHI-aims code project
  #  VB, Fritz-Haber Institut, 2009
  #
  #  Suggested "light" defaults for O atom (to be pasted into control.in file)
  #  Be sure to double-check any results obtained with these settings for post-processing,
  #  e.g., with the "tight" defaults and larger basis sets.
  #
  ################################################################################
    species        O
  #     global species definitions
      nucleus             8
      mass                15.9994
  #
      l_hartree           4
  #
      cut_pot             3.5  1.5  1.0
      basis_dep_cutoff    1e-4
  #
      radial_base         36 5.0
      radial_multiplier   1
       angular_grids specified
        division   0.2659   50
        division   0.4451  110
        division   0.6052  194
        division   0.7543  302
  #      division   0.8014  434
  #      division   0.8507  590
  #      division   0.8762  770
  #      division   0.9023  974
  #      division   1.2339 1202
  #      outer_grid 974
        outer_grid 302
  ################################################################################
  #
  #  Definition of "minimal" basis
  #
  ################################################################################
  #     valence basis states
      valence      2  s   2.
      valence      2  p   4.
  #     ion occupancy
      ion_occ      2  s   1.
      ion_occ      2  p   3.
  ################################################################################
  #
  #  Suggested additional basis functions. For production calculations,
  #  uncomment them one after another (the most important basis functions are
  #  listed first).
  #
  #  Constructed for dimers: 1.0 A, 1.208 A, 1.5 A, 2.0 A, 3.0 A
  #
  ################################################################################
  #  "First tier" - improvements: -699.05 meV to -159.38 meV
       hydro 2 p 1.8
       hydro 3 d 7.6
       hydro 3 s 6.4
  #  "Second tier" - improvements: -49.91 meV to -5.39 meV
  #     hydro 4 f 11.6
  #     hydro 3 p 6.2
  #     hydro 3 d 5.6
  #     hydro 5 g 17.6
  #     hydro 1 s 0.75
  #  "Third tier" - improvements: -2.83 meV to -0.50 meV
  #     ionic 2 p auto
  #     hydro 4 f 10.8
  #     hydro 4 d 4.7
  #     hydro 2 s 6.8
  #  "Fourth tier" - improvements: -0.40 meV to -0.12 meV
  #     hydro 3 p 5
  #     hydro 3 s 3.3
  #     hydro 5 g 15.6
  #     hydro 4 f 17.6
  #     hydro 4 d 14
  # Further basis functions - -0.08 meV and below
  #     hydro 3 s 2.1
  #     hydro 4 d 11.6
  #     hydro 3 p 16
  #     hydro 2 s 17.2
  
  -----------------------------------------------------------------------
  Completed first pass over input file control.in .
  -----------------------------------------------------------------------
  
  
  -----------------------------------------------------------------------
  Parsing geometry.in (first pass over file, find array dimensions only).
  The contents of geometry.in will be repeated verbatim below
  unless switched off by setting 'verbatim_writeout .false.' .
  in the first line of geometry.in .
  -----------------------------------------------------------------------
  
  atom  0.00000 0.00000 0.00000 C
  atom  1.09300 0.00000 0.00000 H
  atom  -0.47961 0.00000 -1.41207 N
  atom  0.32768 0.07855 -2.03170 H
  atom  -0.97539 -0.87124 -1.58888 H
  atom  -0.49584 1.26211 0.72868 C
  atom  -1.58789 1.28919 0.74431 H
  atom  -0.13407 1.27425 1.75947 H
  atom  -0.13407 2.16087 0.22380 H
  atom  -0.39425 -1.28861 0.74398 C
  atom  -0.10189 -1.56493 1.88303 O
  atom  -1.10210 -2.13717 0.06896 O
  atom  -1.25013 -1.59771 -0.72605 H
  
  -----------------------------------------------------------------------
  Completed first pass over input file geometry.in .
  -----------------------------------------------------------------------
  

  Basic array size parameters:
  | Number of species                 :        4
  | Number of atoms                   :       13
  | Max. basis fn. angular momentum   :        2
  | Max. atomic/ionic basis occupied n:        2
  | Max. number of basis fn. types    :        2
  | Max. radial fns per species/type  :        3
  | Max. logarithmic grid size        :     1301
  | Max. radial integration grid size :       36
  | Max. angular integration grid size:      302
  | Max. angular grid division number :        8
  | Radial grid for Hartree potential :     1301
  | Number of spin channels           :        1

------------------------------------------------------------
          Reading file control.in.
------------------------------------------------------------
  XC: Using PBE gradient-corrected functionals.
  Spin treatment: No spin polarisation.
  Non-relativistic treatment of kinetic energy.
  Charge =   0.000000E+00: Neutral system requested explicitly.
  Occupation type: Gaussian broadening, width =   0.100000E-01 eV.
  Using pulay charge density mixing.
  Pulay mixing - number of memorized iterations:   10
  Charge density mixing - mixing parameter:     0.2000
  Convergence accuracy of self-consistent charge density:  0.1000E-04
  Convergence accuracy of sum of eigenvalues:  0.1000E-02
  Convergence accuracy of total energy:  0.1000E-05
  Convergence accuracy of forces:  0.1000E-03
  Maximum number of s.-c. iterations  :   100
 
  Reading configuration options for species H                   .
  | Found nuclear charge :   1.0000
  | Found atomic mass :    1.00794000000000      amu
  | Found l_max for Hartree potential  :   4
  | Found cutoff potl. onset [A], width [A], scale factor :    3.50000    1.50000    1.00000
  | Threshold for basis-dependent cutoff potential is   0.100000E-03
  | Found data for basic radial integration grid :    24 points, outermost radius =    5.000 A
  | Found multiplier for basic radial grid :   1
  | Found angular grid specification: user-specified.
  | Specified grid contains     5 separate shells.
  | Check grid settings after all constraints further below.
  | Found free-atom valence shell :  1 s   1.000
  | No ionic wave fns used. Skipping ion_occ.
  | Found hydrogenic basis function :  2 s   2.100
  | Found hydrogenic basis function :  2 p   3.500
  Species H                   : Missing cutoff potential type.
  Defaulting to exp(1/x)/(1-x)^2 type cutoff potential.
  Species H : No 'logarithmic' tag. Using default grid for free atom:
  | Default logarithmic grid data [bohr] : 0.1000E-03 0.1000E+03 0.1012E+01
  Species H : On-site basis accuracy parameter (for Gram-Schmidt orthonormalisation) not specified.
  Using default value basis_acc =  0.1000000E-03.
  Species H                   : Using default innermost maximum threshold i_radial=  2 for radial functions.
  Species H                   : Default cutoff onset for free atom density etc. : 0.35000000E+01 AA.
  Species H                   : Basic radial grid will be enhanced according to radial_multiplier =   1, to contain    24 grid points.
 
  Reading configuration options for species C                   .
  | Found nuclear charge :   6.0000
  | Found atomic mass :    12.0107000000000      amu
  | Found l_max for Hartree potential  :   4
  | Found cutoff potl. onset [A], width [A], scale factor :    3.50000    1.50000    1.00000
  | Threshold for basis-dependent cutoff potential is   0.100000E-03
  | Found data for basic radial integration grid :    34 points, outermost radius =    5.000 A
  | Found multiplier for basic radial grid :   1
  | Found angular grid specification: user-specified.
  | Specified grid contains     5 separate shells.
  | Check grid settings after all constraints further below.
  | Found free-atom valence shell :  2 s   2.000
  | Found free-atom valence shell :  2 p   2.000
  | No ionic wave fns used. Skipping ion_occ.
  | No ionic wave fns used. Skipping ion_occ.
  | Found hydrogenic basis function :  2 p   1.700
  | Found hydrogenic basis function :  3 d   6.000
  | Found hydrogenic basis function :  2 s   4.900
  Species C                   : Missing cutoff potential type.
  Defaulting to exp(1/x)/(1-x)^2 type cutoff potential.
  Species C : No 'logarithmic' tag. Using default grid for free atom:
  | Default logarithmic grid data [bohr] : 0.1000E-03 0.1000E+03 0.1012E+01
  Species C : On-site basis accuracy parameter (for Gram-Schmidt orthonormalisation) not specified.
  Using default value basis_acc =  0.1000000E-03.
  Species C                   : Using default innermost maximum threshold i_radial=  2 for radial functions.
  Species C                   : Default cutoff onset for free atom density etc. : 0.35000000E+01 AA.
  Species C                   : Basic radial grid will be enhanced according to radial_multiplier =   1, to contain    34 grid points.
 
  Reading configuration options for species N                   .
  | Found nuclear charge :   7.0000
  | Found atomic mass :    14.0067000000000      amu
  | Found l_max for Hartree potential  :   4
  | Found cutoff potl. onset [A], width [A], scale factor :    3.50000    1.50000    1.00000
  | Threshold for basis-dependent cutoff potential is   0.100000E-03
  | Found data for basic radial integration grid :    35 points, outermost radius =    5.000 A
  | Found multiplier for basic radial grid :   1
  | Found angular grid specification: user-specified.
  | Specified grid contains     5 separate shells.
  | Check grid settings after all constraints further below.
  | Found free-atom valence shell :  2 s   2.000
  | Found free-atom valence shell :  2 p   3.000
  | No ionic wave fns used. Skipping ion_occ.
  | No ionic wave fns used. Skipping ion_occ.
  | Found hydrogenic basis function :  2 p   1.800
  | Found hydrogenic basis function :  3 d   6.800
  | Found hydrogenic basis function :  3 s   5.800
  Species N                   : Missing cutoff potential type.
  Defaulting to exp(1/x)/(1-x)^2 type cutoff potential.
  Species N : No 'logarithmic' tag. Using default grid for free atom:
  | Default logarithmic grid data [bohr] : 0.1000E-03 0.1000E+03 0.1012E+01
  Species N : On-site basis accuracy parameter (for Gram-Schmidt orthonormalisation) not specified.
  Using default value basis_acc =  0.1000000E-03.
  Species N                   : Using default innermost maximum threshold i_radial=  2 for radial functions.
  Species N                   : Default cutoff onset for free atom density etc. : 0.35000000E+01 AA.
  Species N                   : Basic radial grid will be enhanced according to radial_multiplier =   1, to contain    35 grid points.
 
  Reading configuration options for species O                   .
  | Found nuclear charge :   8.0000
  | Found atomic mass :    15.9994000000000      amu
  | Found l_max for Hartree potential  :   4
  | Found cutoff potl. onset [A], width [A], scale factor :    3.50000    1.50000    1.00000
  | Threshold for basis-dependent cutoff potential is   0.100000E-03
  | Found data for basic radial integration grid :    36 points, outermost radius =    5.000 A
  | Found multiplier for basic radial grid :   1
  | Found angular grid specification: user-specified.
  | Specified grid contains     5 separate shells.
  | Check grid settings after all constraints further below.
  | Found free-atom valence shell :  2 s   2.000
  | Found free-atom valence shell :  2 p   4.000
  | No ionic wave fns used. Skipping ion_occ.
  | No ionic wave fns used. Skipping ion_occ.
  | Found hydrogenic basis function :  2 p   1.800
  | Found hydrogenic basis function :  3 d   7.600
  | Found hydrogenic basis function :  3 s   6.400
  Species O                   : Missing cutoff potential type.
  Defaulting to exp(1/x)/(1-x)^2 type cutoff potential.
  Species O : No 'logarithmic' tag. Using default grid for free atom:
  | Default logarithmic grid data [bohr] : 0.1000E-03 0.1000E+03 0.1012E+01
  Species O : On-site basis accuracy parameter (for Gram-Schmidt orthonormalisation) not specified.
  Using default value basis_acc =  0.1000000E-03.
  Species O                   : Using default innermost maximum threshold i_radial=  2 for radial functions.
  Species O                   : Default cutoff onset for free atom density etc. : 0.35000000E+01 AA.
  Species O                   : Basic radial grid will be enhanced according to radial_multiplier =   1, to contain    36 grid points.
 
  Finished reading input file 'control.in'. Consistency checks are next.
 
  MPI_IN_PLACE appears to work with this MPI implementation.
  | Keeping use_mpi_in_place .true. (see manual).
  Target number of points in a grid batch is not set. Defaulting to  100
  Method for grid partitioning is not set. Defaulting to parallel hash+maxmin partitioning.
  Batch size limit is not set. Defaulting to    200
  By default, will store active basis functions for each batch.
  If in need of memory, prune_basis_once .false. can be used to disable this option.
  communication_type for Hartree potential was not specified.
  Defaulting to calc_hartree .
  Pulay mixer: Number of initial linear mixing iterations not set.
  Defaulting to    0 iterations.
  Work space size for distributed Hartree potential not set.
  Defaulting to   0.200000E+03 MB.
  Algorithm-dependent basis array size parameters:
  | n_max_pulay                         :       10
  Presetting      1001 iterations before the initial mixing cycle
  is restarted anyway using the sc_init_iter criterion / keyword.
  Presetting a factor      1.000 between actual scf density residual
  and density convergence criterion sc_accuracy_rho below which sc_init_iter
  takes no effect.
  Geometry relaxation not requested: no relaxation will be performed.
  Handling of forces: Unphysical translation and rotation will be removed from forces.
  No accuracy limit for integral partition fn. given. Defaulting to  0.1000E-14.
  No threshold value for u(r) in integrations given. Defaulting to  0.1000E-05.
  No accuracy for occupation numbers given. Defaulting to  0.1000E-12.
  No threshold value for occupation numbers given. Defaulting to  0.0000E+00.
  No accuracy for fermi level given. Defaulting to  0.1000E-19.
  Maximum # of iterations to find E_F not set. Defaulting to  200.
  Preferred method for the eigenvalue solver ('KS_method') not specified in 'control.in'.
  Defaulting to serial version, 'lapack_fast'.
  Will not use alltoall communication since running on < 1024 CPUs.
  Threshold for basis singularities not set.
  Default threshold for basis singularities:  0.1000E-04
  partition_type (choice of integration weights) for integrals was not specified.
  | Using a version of the partition function of Stratmann and coworkers ('stratmann_smoother').
  | At each grid point, the set of atoms used to build the partition table is smoothly restricted to
  | only those atoms whose free-atom density would be non-zero at that grid point.
  Partitioning for Hartree potential was not defined. Using partition_type for integrals.
  | Adjusted default value of keyword multip_moments_threshold to:       0.10000000E-11
  | This value may affect high angular momentum components of the Hartree potential in periodic systems.
  No q(lm)/r^(l+1) cutoff set for long-range Hartree potential.
  | Using default value of  0.100000E-09 .
  | Verify using the multipole_threshold keyword.
  Defaulting to new monopole extrapolation.
  Density update method: automatic selection selected.
------------------------------------------------------------


------------------------------------------------------------
          Reading geometry description geometry.in.
------------------------------------------------------------
  Input structure read successfully.
  The structure contains       13 atoms,  and a total of         48.000 electrons.

  Input geometry:
  | No unit cell requested.
  | Atomic structure:
  |       Atom                x [A]            y [A]            z [A]
  |    1: Species C             0.00000000        0.00000000        0.00000000
  |    2: Species H             1.09300000        0.00000000        0.00000000
  |    3: Species N            -0.47961000        0.00000000       -1.41207000
  |    4: Species H             0.32768000        0.07855000       -2.03170000
  |    5: Species H            -0.97539000       -0.87124000       -1.58888000
  |    6: Species C            -0.49584000        1.26211000        0.72868000
  |    7: Species H            -1.58789000        1.28919000        0.74431000
  |    8: Species H            -0.13407000        1.27425000        1.75947000
  |    9: Species H            -0.13407000        2.16087000        0.22380000
  |   10: Species C            -0.39425000       -1.28861000        0.74398000
  |   11: Species O            -0.10189000       -1.56493000        1.88303000
  |   12: Species O            -1.10210000       -2.13717000        0.06896000
  |   13: Species H            -1.25013000       -1.59771000       -0.72605000
  |

  | The smallest distance between any two atoms is         0.97209612 AA.
  |
  | The first atom of this pair is atom number                     12 .
  | The second atom of this pair is atom number                    13 .

  Number of empty states per atom not set in control.in - providing a guess from actual geometry.
  | Total number of empty states used during s.c.f. cycle:       29
  If you use a very high smearing, use empty_states (per atom!) in control.in to increase this value.

  Structure-dependent array size parameters: 
  | Maximum number of distinct radial functions  :       21
  | Maximum number of basis functions            :      119
  | Number of Kohn-Sham states (occupied + empty):       53
------------------------------------------------------------

------------------------------------------------------------
          Preparing all fixed parts of the calculation.
------------------------------------------------------------
  Determining machine precision:
    2.225073858507201E-308
  Setting up grids for atomic and cluster calculations.

  Creating wave function, potential, and density for free atoms.

  Species: H

  List of occupied orbitals and eigenvalues:
    n    l              occ      energy [Ha]    energy [eV]
    1    0           1.0000        -0.237589        -6.4651


  Species: C

  List of occupied orbitals and eigenvalues:
    n    l              occ      energy [Ha]    energy [eV]
    1    0           2.0000       -10.038835      -273.1706
    2    0           2.0000        -0.502696       -13.6791
    2    1           2.0000        -0.191971        -5.2238


  Species: N

  List of occupied orbitals and eigenvalues:
    n    l              occ      energy [Ha]    energy [eV]
    1    0           2.0000       -14.128000      -384.4424
    2    0           2.0000        -0.681077       -18.5330
    2    1           3.0000        -0.259788        -7.0692


  Species: O

  List of occupied orbitals and eigenvalues:
    n    l              occ      energy [Ha]    energy [eV]
    1    0           2.0000       -18.898188      -514.2459
    2    0           2.0000        -0.878505       -23.9053
    2    1           4.0000        -0.331779        -9.0282

  Creating fixed part of basis set: Ionic, confined, hydrogenic.
 
  H                    hydrogenic:
 
  List of hydrogenic basis orbitals: 
    n    l      effective z      eigenvalue [eV]  inner max. [A]     outer max. [A]     outer radius [A]   
    2    0         2.100000       -14.9728           0.193243           1.317208           4.583499
    2    1         3.500000       -41.6669           0.602369           0.602369           3.723403
 
 
  C                    hydrogenic:
 
  List of hydrogenic basis orbitals: 
    n    l      effective z      eigenvalue [eV]  inner max. [A]     outer max. [A]     outer radius [A]   
    2    1         1.700000        -9.7616           1.230570           1.230570           4.607917
    3    2         6.000000       -54.4224           0.792453           0.792453           3.883070
    2    0         4.900000       -81.6679           0.082559           0.562749           3.078220
 
 
  N                    hydrogenic:
 
  List of hydrogenic basis orbitals: 
    n    l      effective z      eigenvalue [eV]  inner max. [A]     outer max. [A]     outer radius [A]   
    2    1         1.800000       -10.9749           1.177451           1.177451           4.573712
    3    2         6.800000       -69.9026           0.704619           0.704619           3.538137
    3    0         5.800000       -50.8545           0.067388           1.191934           4.250239
 
 
  O                    hydrogenic:
 
  List of hydrogenic basis orbitals: 
    n    l      effective z      eigenvalue [eV]  inner max. [A]     outer max. [A]     outer radius [A]   
    2    1         1.800000       -10.9749           1.164242           1.164242           4.578029
    3    2         7.600000       -87.3180           0.624125           0.624125           3.251020
    3    0         6.400000       -61.9207           0.061167           1.081902           4.001998
 

  Adding cutoff potential to free-atom effective potential.
  Creating atomic-like basis functions for current effective potential.

  Species H                   :

  List of atomic basis orbitals and eigenvalues:
    n    l      energy [Ha]    energy [eV]    outer radius [A]
    1    0        -0.237589        -6.4651       4.527807


  Species C                   :

  List of atomic basis orbitals and eigenvalues:
    n    l      energy [Ha]    energy [eV]    outer radius [A]
    1    0       -10.038835      -273.1706       1.934409
    2    0        -0.502696       -13.6791       4.496620
    2    1        -0.191971        -5.2238       4.551928


  Species N                   :

  List of atomic basis orbitals and eigenvalues:
    n    l      energy [Ha]    energy [eV]    outer radius [A]
    1    0       -14.128000      -384.4424       1.637919
    2    0        -0.681077       -18.5330       4.463241
    2    1        -0.259788        -7.0692       4.518138


  Species O                   :

  List of atomic basis orbitals and eigenvalues:
    n    l      energy [Ha]    energy [eV]    outer radius [A]
    1    0       -18.898188      -514.2459       1.415765
    2    0        -0.878505       -23.9053       4.413171
    2    1        -0.331779        -9.0282       4.522403

  Assembling full basis from fixed parts.
  | Species H :   atomic orbital   1 s accepted.
  | Species H :    hydro orbital   2 s accepted.
  | Species H :    hydro orbital   2 p accepted.
  | Species C :   atomic orbital   1 s accepted.
  | Species C :    hydro orbital   2 s accepted.
  | Species C :   atomic orbital   2 s accepted.
  | Species C :   atomic orbital   2 p accepted.
  | Species C :    hydro orbital   2 p accepted.
  | Species C :    hydro orbital   3 d accepted.
  | Species N :   atomic orbital   1 s accepted.
  | Species N :    hydro orbital   3 s accepted.
  | Species N :   atomic orbital   2 s accepted.
  | Species N :   atomic orbital   2 p accepted.
  | Species N :    hydro orbital   2 p accepted.
  | Species N :    hydro orbital   3 d accepted.
  | Species O :   atomic orbital   1 s accepted.
  | Species O :    hydro orbital   3 s accepted.
  | Species O :   atomic orbital   2 s accepted.
  | Species O :   atomic orbital   2 p accepted.
  | Species O :    hydro orbital   2 p accepted.
  | Species O :    hydro orbital   3 d accepted.
 
  Basis size parameters after reduction:
  | Total number of radial functions:       21
  | Total number of basis functions :      119
 
  Per-task memory consumption for arrays in subroutine allocate_ext:
  |           5.250512MB.
  Testing on-site integration grid accuracy.
  |  Species  Function  <phi|h_atom|phi> (log., in eV)  <phi|h_atom|phi> (rad., in eV)
           1        1                 -6.4663192853                 -6.4651273558
           1        2                 13.7111246313                 13.7170609718
           1        3                 25.2673269279                 25.2674696378
           2        4               -273.1705927641               -273.1705631568
           2        5                -10.7109323383                -10.7107120029
           2        6                 17.4381822266                 17.4352413244
           2        7                 -5.2255326521                 -5.2270484734
           2        8                  8.6835629259                  8.6603288385
           2        9                 27.4952418996                 27.4953360207
           3       10               -384.4424306495               -384.4423701208
           3       11                 12.5842251816                 12.5842222903
           3       12                -15.7264628251                -15.7264433455
           3       13                 -7.0696854293                 -7.0701769954
           3       14                  8.8090390882                  8.7901077751
           3       15                 35.9586762123                 35.9588528632
           4       16               -514.2458688638               -514.2457643834
           4       17                 15.1795651126                 15.1795290741
           4       18                -21.5359799773                -21.5360846186
           4       19                 -9.0283069236                 -9.0284644067
           4       20                  8.3027758564                  8.2834874195
           4       21                 45.8339351984                 45.8338762259

  Preparing densities etc. for the partition functions (integrals / Hartree potential).

  Preparations completed.
  max(cpu_time)          :      0.148 s.
  Wall clock time (cpu1) :      0.150 s.
------------------------------------------------------------

------------------------------------------------------------
          Begin self-consistency loop: Initialization.

          Date     :  20200805, Time     :  182601.557
------------------------------------------------------------

  Initializing index lists of integration centers etc. from given atomic structure:
  | Number of centers in hartree potential         :        13
  | Number of centers in hartree multipole         :        13
  | Number of centers in electron density summation:        13
  | Number of centers in basis integrals           :        13
  | Number of centers in integrals                 :        13
  | Number of centers in hamiltonian               :        13
  Partitioning the integration grid into batches with parallel hashing+maxmin method.
  | Number of batches:      956
  | Maximal batch size:     139
  | Minimal batch size:      66
  | Average batch size:      72.851
  | Standard deviation of batch sizes:      17.565

  Integration load balanced across     1 MPI tasks.
  Work distribution over tasks is as follows:
  Task     0 has      69646 integration points.
  Initializing partition tables, free-atom densities, potentials, etc. across the integration grid (initialize_grid_storage).
  | initialize_grid_storage: Actual outermost partition radius vs. multipole_radius_free
  | (-- VB: in principle, multipole_radius_free should be larger, hence this output)
  | Species        1: Confinement radius =              4.999999999999999 AA, multipole_radius_free =              5.054417573612229 AA.
  | Species        1: outer_partition_radius set to              5.054417573612229 AA .
  | Species        2: Confinement radius =              4.999999999999999 AA, multipole_radius_free =              5.019602836301480 AA.
  | Species        2: outer_partition_radius set to              5.019602836301480 AA .
  | Species        3: Confinement radius =              4.999999999999999 AA, multipole_radius_free =              5.043624274424571 AA.
  | Species        3: outer_partition_radius set to              5.043624274424571 AA .
  | Species        4: Confinement radius =              4.999999999999999 AA, multipole_radius_free =              5.048384829883283 AA.
  | Species        4: outer_partition_radius set to              5.048384829883283 AA .
  | Original list of interatomic distances with          13 x         13 entries is created.
  | Net number of integration points:    69646
  | of which are non-zero points    :    59477
  Renormalizing the initial density to the exact electron count on the 3D integration grid.
  | Initial density: Formal number of electrons (from input files) :      48.0000000000
  | Integrated number of electrons on 3D grid     :      47.9999737200
  | Charge integration error                      :      -0.0000262800
  | Normalization factor for density and gradient :       1.0000005475
  Obtaining max. number of non-zero basis functions in each batch (get_n_compute_maxes).
  | Maximal number of non-zero basis functions:      119 in task     0
  Selecting the method for density update.
  Loop over occupied states selected for charge density update.
  Allocating        0.050 MB for KS_eigenvector
  Integrating Hamiltonian matrix: batch-based integration.
  Time summed over all CPUs for integration: real work        0.500 s, elapsed        0.500 s
  Integrating overlap matrix.
  Time summed over all CPUs for integration: real work        0.215 s, elapsed        0.215 s

  Updating Kohn-Sham eigenvalues and eigenvectors using ELSI and the ELPA eigensolver.
  Overlap matrix is nonsingular
  | Lowest eigenvalue of overlap  :  0.29E-02
  | Highest eigenvalue of overlap :  0.64E+01
  Finished singularity check of overlap matrix
  | Time :     0.002 s
  Finished Cholesky decomposition
  | Time :     0.000 s
  Finished transformation to standard eigenproblem
  | Time :     0.000 s
  Starting LAPACK eigensolver
  Finished solving standard eigenproblem
  | Time :     0.002 s
  Finished back-transformation of eigenvectors
  | Time :     0.000 s

  Obtaining occupation numbers and chemical potential using ELSI.
  | Chemical potential (Fermi level):    -9.92378420eV
  Writing Kohn-Sham eigenvalues.

  State    Occupation    Eigenvalue [Ha]    Eigenvalue [eV]
      1       2.00000         -19.008474         -517.24690
      2       2.00000         -18.977117         -516.39363
      3       2.00000         -14.247736         -387.70062
      4       2.00000         -10.166589         -276.64696
      5       2.00000         -10.142034         -275.97880
      6       2.00000         -10.132156         -275.70998
      7       2.00000          -1.184332          -32.22731
      8       2.00000          -1.103813          -30.03629
      9       2.00000          -0.995623          -27.09227
     10       2.00000          -0.863479          -23.49646
     11       2.00000          -0.751404          -20.44675
     12       2.00000          -0.691041          -18.80419
     13       2.00000          -0.655007          -17.82365
     14       2.00000          -0.609720          -16.59131
     15       2.00000          -0.569145          -15.48723
     16       2.00000          -0.563197          -15.32538
     17       2.00000          -0.552413          -15.03192
     18       2.00000          -0.531995          -14.47632
     19       2.00000          -0.516417          -14.05242
     20       2.00000          -0.497151          -13.52818
     21       2.00000          -0.480019          -13.06197
     22       2.00000          -0.430742          -11.72109
     23       2.00000          -0.409191          -11.13466
     24       2.00000          -0.388804          -10.57988
     25       0.00000          -0.148503           -4.04096
     26       0.00000          -0.084916           -2.31068
     27       0.00000          -0.036632           -0.99680
     28       0.00000          -0.027171           -0.73936
     29       0.00000           0.001105            0.03007
     30       0.00000           0.019953            0.54295
     31       0.00000           0.020796            0.56588
     32       0.00000           0.029227            0.79531
     33       0.00000           0.064317            1.75015
     34       0.00000           0.068199            1.85580
     35       0.00000           0.116936            3.18198
     36       0.00000           0.142909            3.88876
     37       0.00000           0.178947            4.86939
     38       0.00000           0.202396            5.50747
     39       0.00000           0.210363            5.72428
     40       0.00000           0.216653            5.89543
     41       0.00000           0.235688            6.41340
     42       0.00000           0.270744            7.36732
     43       0.00000           0.299072            8.13817
     44       0.00000           0.308936            8.40657
     45       0.00000           0.343198            9.33889
     46       0.00000           0.350097            9.52662
     47       0.00000           0.378375           10.29610
     48       0.00000           0.388400           10.56891
     49       0.00000           0.420248           11.43553
     50       0.00000           0.470499           12.80294
     51       0.00000           0.503217           13.69324
     52       0.00000           0.536512           14.59923
     53       0.00000           0.552215           15.02653

  Highest occupied state (VBM) at    -10.57988154 eV
  | Occupation number:      2.00000000

  Lowest unoccupied state (CBM) at    -4.04096494 eV
  | Occupation number:      0.00000000

  Overall HOMO-LUMO gap:      6.53891660 eV.
  Calculating total energy contributions from superposition of free atom densities.

  Total energy components:
  | Sum of eigenvalues            :        -188.93519959 Ha       -5141.18836164 eV
  | XC energy correction          :         -41.82611648 Ha       -1138.14653774 eV
  | XC potential correction       :          53.77080729 Ha        1463.17811201 eV
  | Free-atom electrostatic energy:        -146.74701089 Ha       -3993.18933743 eV
  | Hartree energy correction     :           0.00000000 Ha           0.00000000 eV
  | vdW energy correction         :           0.00000000 Ha           0.00000000 eV
  | Entropy correction            :           0.00000000 Ha           0.00000000 eV
  | ---------------------------
  | Total energy                  :        -323.73751967 Ha       -8809.34612480 eV
  | Total energy, T -> 0          :        -323.73751967 Ha       -8809.34612480 eV  <-- do not rely on this value for anything but (periodic) metals
  | Electronic free energy        :        -323.73751967 Ha       -8809.34612480 eV

  Derived energy quantities:
  | Kinetic energy                :         320.59134026 Ha        8723.73422711 eV
  | Electrostatic energy          :        -602.50274344 Ha      -16394.93381417 eV
  | Energy correction for multipole
  | error in Hartree potential    :           0.00000000 Ha           0.00000000 eV
  | Sum of eigenvalues per atom                           :        -395.47602782 eV
  | Total energy (T->0) per atom                          :        -677.64200960 eV  <-- do not rely on this value for anything but (periodic) metals
  | Electronic free energy per atom                       :        -677.64200960 eV
  Initialize hartree_potential_storage
  Max. number of atoms included in rho_multipole:           13

  End scf initialization - timings             :  max(cpu_time)    wall_clock(cpu1)
  | Time for scf. initialization               :        1.166 s           1.168 s
  | Boundary condition initialization          :        0.000 s           0.000 s
  | Integration                                :        0.715 s           0.716 s
  | Solution of K.-S. eqns.                    :        0.004 s           0.004 s
  | Grid partitioning                          :        0.113 s           0.113 s
  | Preloading free-atom quantities on grid    :        0.002 s           0.002 s
  | Free-atom superposition energy             :        0.085 s           0.086 s
  | Total energy evaluation                    :        0.000 s           0.000 s

  Partial memory accounting:
  | Current value for overall tracked memory usage on task 0  :           0.165 MB
  | Peak value for overall tracked memory usage on task 0     :           0.678 MB after allocating wave
  | Largest tracked array allocation on task 0 so far         :           0.132 MB  when allocating H_times_psi
  Note:  These values currently only include a subset of arrays which are explicitly tracked.
  The "true" memory usage will be greater.
------------------------------------------------------------

------------------------------------------------------------
          Begin self-consistency iteration #    1

  Date     :  20200805, Time     :  182602.725
------------------------------------------------------------
  Evaluating new KS density.
  Integration grid: deviation in total charge (<rho> - N_e) =  -1.421085E-14
  Pulay mixing of updated and previous charge densities.

  Evaluating partitioned Hartree potential by multipole expansion.
  | Analytical far-field extrapolation by fixed multipoles:
  | Hartree multipole sum: apparent total charge =  -0.126930E-03
  Summing up the Hartree potential.
  Time summed over all CPUs for potential: real work        0.282 s, elapsed        0.282 s
  | RMS charge density error from multipole expansion :   0.597840E-02

  Integrating Hamiltonian matrix: batch-based integration.
  Time summed over all CPUs for integration: real work        0.500 s, elapsed        0.500 s

  Updating Kohn-Sham eigenvalues and eigenvectors using ELSI and the ELPA eigensolver.
  Finished Cholesky decomposition
  | Time :     0.000 s
  Finished transformation to standard eigenproblem
  | Time :     0.000 s
  Starting LAPACK eigensolver
  Finished solving standard eigenproblem
  | Time :     0.001 s
  Finished back-transformation of eigenvectors
  | Time :     0.000 s

  Obtaining occupation numbers and chemical potential using ELSI.
  | Chemical potential (Fermi level):    -4.86219690eV
  Writing Kohn-Sham eigenvalues.

  State    Occupation    Eigenvalue [Ha]    Eigenvalue [eV]
      1       2.00000         -18.915298         -514.71146
      2       2.00000         -18.830111         -512.39339
      3       2.00000         -14.115608         -384.10523
      4       2.00000         -10.116019         -275.27088
      5       2.00000         -10.069333         -274.00049
      6       2.00000         -10.029968         -272.92933
      7       2.00000          -1.139702          -31.01286
      8       2.00000          -1.038898          -28.26985
      9       2.00000          -0.937351          -25.50662
     10       2.00000          -0.801234          -21.80269
     11       2.00000          -0.700822          -19.07034
     12       2.00000          -0.651794          -17.73623
     13       2.00000          -0.607794          -16.53891
     14       2.00000          -0.553627          -15.06497
     15       2.00000          -0.516688          -14.05979
     16       2.00000          -0.506992          -13.79596
     17       2.00000          -0.489306          -13.31470
     18       2.00000          -0.476991          -12.97957
     19       2.00000          -0.454831          -12.37658
     20       2.00000          -0.442035          -12.02838
     21       2.00000          -0.427668          -11.63743
     22       2.00000          -0.369063          -10.04271
     23       2.00000          -0.342258           -9.31332
     24       2.00000          -0.318286           -8.66099
     25       0.00000          -0.111435           -3.03230
     26       0.00000          -0.063867           -1.73790
     27       0.00000          -0.009683           -0.26349
     28       0.00000           0.012053            0.32797
     29       0.00000           0.038257            1.04103
     30       0.00000           0.052942            1.44063
     31       0.00000           0.058038            1.57930
     32       0.00000           0.069338            1.88677
     33       0.00000           0.100238            2.72761
     34       0.00000           0.105295            2.86522
     35       0.00000           0.143803            3.91307
     36       0.00000           0.167039            4.54536
     37       0.00000           0.199610            5.43167
     38       0.00000           0.233098            6.34292
     39       0.00000           0.235804            6.41655
     40       0.00000           0.249843            6.79857
     41       0.00000           0.266761            7.25894
     42       0.00000           0.302973            8.24432
     43       0.00000           0.340403            9.26283
     44       0.00000           0.345656            9.40579
     45       0.00000           0.374921           10.20213
     46       0.00000           0.390640           10.62984
     47       0.00000           0.413584           11.25419
     48       0.00000           0.423209           11.51609
     49       0.00000           0.452080           12.30173
     50       0.00000           0.502827           13.68261
     51       0.00000           0.535303           14.56633
     52       0.00000           0.564939           15.37276
     53       0.00000           0.582969           15.86338

  Highest occupied state (VBM) at     -8.66099296 eV
  | Occupation number:      2.00000000

  Lowest unoccupied state (CBM) at    -3.03230107 eV
  | Occupation number:      0.00000000

  Overall HOMO-LUMO gap:      5.62869190 eV.

  Total energy components:
  | Sum of eigenvalues            :        -185.70335263 Ha       -5053.24533141 eV
  | XC energy correction          :         -42.14372358 Ha       -1146.78906651 eV
  | XC potential correction       :          54.18370115 Ha        1474.41352551 eV
  | Free-atom electrostatic energy:        -146.74701089 Ha       -3993.18933743 eV
  | Hartree energy correction     :          -3.15357394 Ha         -85.81311294 eV
  | vdW energy correction         :           0.00000000 Ha           0.00000000 eV
  | Entropy correction            :           0.00000000 Ha           0.00000000 eV
  | ---------------------------
  | Total energy                  :        -323.56395988 Ha       -8804.62332277 eV
  | Total energy, T -> 0          :        -323.56395988 Ha       -8804.62332277 eV  <-- do not rely on this value for anything but (periodic) metals
  | Electronic free energy        :        -323.56395988 Ha       -8804.62332277 eV

  Derived energy quantities:
  | Kinetic energy                :         322.32440464 Ha        8770.89330850 eV
  | Electrostatic energy          :        -603.74464095 Ha      -16428.72756477 eV
  | Energy correction for multipole
  | error in Hartree potential    :           0.01258293 Ha           0.34239884 eV
  | Sum of eigenvalues per atom                           :        -388.71117934 eV
  | Total energy (T->0) per atom                          :        -677.27871714 eV  <-- do not rely on this value for anything but (periodic) metals
  | Electronic free energy per atom                       :        -677.27871714 eV

  Self-consistency convergence accuracy:
  | Change of charge density      :  0.5730E+00
  | Change of sum of eigenvalues  :  0.8794E+02 eV
  | Change of total energy        :  0.4723E+01 eV

  End self-consistency iteration #     1       :  max(cpu_time)    wall_clock(cpu1)
  | Time for this iteration                    :        1.199 s           1.200 s
  | Charge density update                      :        0.399 s           0.399 s
  | Density mixing                             :        0.005 s           0.005 s
  | Hartree multipole update                   :        0.009 s           0.009 s
  | Hartree multipole summation                :        0.283 s           0.283 s
  | Integration                                :        0.501 s           0.501 s
  | Solution of K.-S. eqns.                    :        0.002 s           0.002 s
  | Total energy evaluation                    :        0.000 s           0.000 s

  Partial memory accounting:
  | Current value for overall tracked memory usage on task 0  :           0.165 MB
  | Peak value for overall tracked memory usage on task 0     :           0.695 MB after allocating gradient_basis_wave
  | Largest tracked array allocation on task 0 so far         :           0.397 MB  when allocating gradient_basis_wave
  Note:  These values currently only include a subset of arrays which are explicitly tracked.
  The "true" memory usage will be greater.
------------------------------------------------------------

------------------------------------------------------------
          Begin self-consistency iteration #    2

  Date     :  20200805, Time     :  182603.927
------------------------------------------------------------
  Evaluating new KS density.
  Integration grid: deviation in total charge (<rho> - N_e) =  -1.421085E-14
  Pulay mixing of updated and previous charge densities.

  Evaluating partitioned Hartree potential by multipole expansion.
  | Analytical far-field extrapolation by fixed multipoles:
  | Hartree multipole sum: apparent total charge =  -0.255065E-03
  Summing up the Hartree potential.
  Time summed over all CPUs for potential: real work        0.282 s, elapsed        0.282 s
  | RMS charge density error from multipole expansion :   0.142312E-01

  Integrating Hamiltonian matrix: batch-based integration.
  Time summed over all CPUs for integration: real work        0.502 s, elapsed        0.502 s

  Updating Kohn-Sham eigenvalues and eigenvectors using ELSI and the ELPA eigensolver.
  Finished Cholesky decomposition
  | Time :     0.000 s
  Finished transformation to standard eigenproblem
  | Time :     0.000 s
  Starting LAPACK eigensolver
  Finished solving standard eigenproblem
  | Time :     0.002 s
  Finished back-transformation of eigenvectors
  | Time :     0.000 s

  Obtaining occupation numbers and chemical potential using ELSI.
  | Chemical potential (Fermi level):    -3.75241091eV
  Highest occupied state (VBM) at     -6.79429761 eV
  | Occupation number:      2.00000000

  Lowest unoccupied state (CBM) at    -1.74692678 eV
  | Occupation number:      0.00000000

  Overall HOMO-LUMO gap:      5.04737083 eV.

  Checking to see if s.c.f. parameters should be adjusted.

  Total energy components:
  | Sum of eigenvalues            :        -182.28198837 Ha       -4960.14527292 eV
  | XC energy correction          :         -42.49308027 Ha       -1156.29554589 eV
  | XC potential correction       :          54.63624591 Ha        1486.72789514 eV
  | Free-atom electrostatic energy:        -146.74701089 Ha       -3993.18933743 eV
  | Hartree energy correction     :          -6.60340415 Ha        -179.68776935 eV
  | vdW energy correction         :           0.00000000 Ha           0.00000000 eV
  | Entropy correction            :           0.00000000 Ha           0.00000000 eV
  | ---------------------------
  | Total energy                  :        -323.48923777 Ha       -8802.59003045 eV
  | Total energy, T -> 0          :        -323.48923777 Ha       -8802.59003045 eV  <-- do not rely on this value for anything but (periodic) metals
  | Electronic free energy        :        -323.48923777 Ha       -8802.59003045 eV

  Derived energy quantities:
  | Kinetic energy                :         323.61730764 Ha        8806.07498915 eV
  | Electrostatic energy          :        -604.61346514 Ha      -16452.36947371 eV
  | Energy correction for multipole
  | error in Hartree potential    :           0.02779683 Ha           0.75639018 eV
  | Sum of eigenvalues per atom                           :        -381.54963638 eV
  | Total energy (T->0) per atom                          :        -677.12231003 eV  <-- do not rely on this value for anything but (periodic) metals
  | Electronic free energy per atom                       :        -677.12231003 eV

  Self-consistency convergence accuracy:
  | Change of charge density      :  0.3599E+00
  | Change of sum of eigenvalues  :  0.9310E+02 eV
  | Change of total energy        :  0.2033E+01 eV

  End self-consistency iteration #     2       :  max(cpu_time)    wall_clock(cpu1)
  | Time for this iteration                    :        1.193 s           1.194 s
  | Charge density update                      :        0.391 s           0.391 s
  | Density mixing                             :        0.007 s           0.007 s
  | Hartree multipole update                   :        0.009 s           0.009 s
  | Hartree multipole summation                :        0.282 s           0.282 s
  | Integration                                :        0.502 s           0.503 s
  | Solution of K.-S. eqns.                    :        0.002 s           0.002 s
  | Total energy evaluation                    :        0.000 s           0.000 s

  Partial memory accounting:
  | Current value for overall tracked memory usage on task 0  :           0.166 MB
  | Peak value for overall tracked memory usage on task 0     :           0.695 MB after allocating gradient_basis_wave
  | Largest tracked array allocation on task 0 so far         :           0.397 MB  when allocating gradient_basis_wave
  Note:  These values currently only include a subset of arrays which are explicitly tracked.
  The "true" memory usage will be greater.
------------------------------------------------------------

------------------------------------------------------------
          Begin self-consistency iteration #    3

  Date     :  20200805, Time     :  182605.124
------------------------------------------------------------
  Evaluating new KS density.
  Integration grid: deviation in total charge (<rho> - N_e) =   2.842171E-14
  Pulay mixing of updated and previous charge densities.

  Evaluating partitioned Hartree potential by multipole expansion.
  | Analytical far-field extrapolation by fixed multipoles:
  | Hartree multipole sum: apparent total charge =  -0.346854E-03
  Summing up the Hartree potential.
  Time summed over all CPUs for potential: real work        0.282 s, elapsed        0.282 s
  | RMS charge density error from multipole expansion :   0.225381E-01

  Integrating Hamiltonian matrix: batch-based integration.
  Time summed over all CPUs for integration: real work        0.501 s, elapsed        0.501 s

  Updating Kohn-Sham eigenvalues and eigenvectors using ELSI and the ELPA eigensolver.
  Finished Cholesky decomposition
  | Time :     0.000 s
  Finished transformation to standard eigenproblem
  | Time :     0.000 s
  Starting LAPACK eigensolver
  Finished solving standard eigenproblem
  | Time :     0.001 s
  Finished back-transformation of eigenvectors
  | Time :     0.000 s

  Obtaining occupation numbers and chemical potential using ELSI.
  | Chemical potential (Fermi level):    -3.10119909eV
  Highest occupied state (VBM) at     -6.17195960 eV
  | Occupation number:      2.00000000

  Lowest unoccupied state (CBM) at    -1.02982442 eV
  | Occupation number:      0.00000000

  Overall HOMO-LUMO gap:      5.14213518 eV.

  Total energy components:
  | Sum of eigenvalues            :        -180.92100297 Ha       -4923.11097589 eV
  | XC energy correction          :         -42.65186844 Ha       -1160.61639183 eV
  | XC potential correction       :          54.83867738 Ha        1492.23633553 eV
  | Free-atom electrostatic energy:        -146.74701089 Ha       -3993.18933743 eV
  | Hartree energy correction     :          -7.99593940 Ha        -217.58058153 eV
  | vdW energy correction         :           0.00000000 Ha           0.00000000 eV
  | Entropy correction            :           0.00000000 Ha           0.00000000 eV
  | ---------------------------
  | Total energy                  :        -323.47714432 Ha       -8802.26095114 eV
  | Total energy, T -> 0          :        -323.47714432 Ha       -8802.26095114 eV  <-- do not rely on this value for anything but (periodic) metals
  | Electronic free energy        :        -323.47714432 Ha       -8802.26095114 eV

  Derived energy quantities:
  | Kinetic energy                :         323.28878284 Ha        8797.13537449 eV
  | Electrostatic energy          :        -604.11405872 Ha      -16438.77993380 eV
  | Energy correction for multipole
  | error in Hartree potential    :           0.03959569 Ha           1.07745342 eV
  | Sum of eigenvalues per atom                           :        -378.70084430 eV
  | Total energy (T->0) per atom                          :        -677.09699624 eV  <-- do not rely on this value for anything but (periodic) metals
  | Electronic free energy per atom                       :        -677.09699624 eV

  Self-consistency convergence accuracy:
  | Change of charge density      :  0.2018E+00
  | Change of sum of eigenvalues  :  0.3703E+02 eV
  | Change of total energy        :  0.3291E+00 eV

  End self-consistency iteration #     3       :  max(cpu_time)    wall_clock(cpu1)
  | Time for this iteration                    :        1.194 s           1.196 s
  | Charge density update                      :        0.391 s           0.392 s
  | Density mixing                             :        0.008 s           0.008 s
  | Hartree multipole update                   :        0.009 s           0.009 s
  | Hartree multipole summation                :        0.283 s           0.283 s
  | Integration                                :        0.501 s           0.501 s
  | Solution of K.-S. eqns.                    :        0.002 s           0.002 s
  | Total energy evaluation                    :        0.000 s           0.000 s

  Partial memory accounting:
  | Current value for overall tracked memory usage on task 0  :           0.166 MB
  | Peak value for overall tracked memory usage on task 0     :           0.695 MB after allocating gradient_basis_wave
  | Largest tracked array allocation on task 0 so far         :           0.397 MB  when allocating gradient_basis_wave
  Note:  These values currently only include a subset of arrays which are explicitly tracked.
  The "true" memory usage will be greater.
------------------------------------------------------------

------------------------------------------------------------
          Begin self-consistency iteration #    4

  Date     :  20200805, Time     :  182606.322
------------------------------------------------------------
  Evaluating new KS density.
  Integration grid: deviation in total charge (<rho> - N_e) =  -1.421085E-14
  Pulay mixing of updated and previous charge densities.

  Evaluating partitioned Hartree potential by multipole expansion.
  | Analytical far-field extrapolation by fixed multipoles:
  | Hartree multipole sum: apparent total charge =  -0.375608E-03
  Summing up the Hartree potential.
  Time summed over all CPUs for potential: real work        0.282 s, elapsed        0.282 s
  | RMS charge density error from multipole expansion :   0.261055E-01

  Integrating Hamiltonian matrix: batch-based integration.
  Time summed over all CPUs for integration: real work        0.501 s, elapsed        0.501 s

  Updating Kohn-Sham eigenvalues and eigenvectors using ELSI and the ELPA eigensolver.
  Finished Cholesky decomposition
  | Time :     0.000 s
  Finished transformation to standard eigenproblem
  | Time :     0.000 s
  Starting LAPACK eigensolver
  Finished solving standard eigenproblem
  | Time :     0.002 s
  Finished back-transformation of eigenvectors
  | Time :     0.000 s

  Obtaining occupation numbers and chemical potential using ELSI.
  | Chemical potential (Fermi level):    -3.03353177eV
  Highest occupied state (VBM) at     -5.91687109 eV
  | Occupation number:      2.00000000

  Lowest unoccupied state (CBM) at    -0.96772737 eV
  | Occupation number:      0.00000000

  Overall HOMO-LUMO gap:      4.94914372 eV.

  Total energy components:
  | Sum of eigenvalues            :        -180.85673264 Ha       -4921.36209128 eV
  | XC energy correction          :         -42.68450561 Ha       -1161.50449432 eV
  | XC potential correction       :          54.87930157 Ha        1493.34177616 eV
  | Free-atom electrostatic energy:        -146.74701089 Ha       -3993.18933743 eV
  | Hartree energy correction     :          -8.06727149 Ha        -219.52162626 eV
  | vdW energy correction         :           0.00000000 Ha           0.00000000 eV
  | Entropy correction            :           0.00000000 Ha           0.00000000 eV
  | ---------------------------
  | Total energy                  :        -323.47621905 Ha       -8802.23577313 eV
  | Total energy, T -> 0          :        -323.47621905 Ha       -8802.23577313 eV  <-- do not rely on this value for anything but (periodic) metals
  | Electronic free energy        :        -323.47621905 Ha       -8802.23577313 eV

  Derived energy quantities:
  | Kinetic energy                :         322.87288954 Ha        8785.81834203 eV
  | Electrostatic energy          :        -603.66460298 Ha      -16426.54962083 eV
  | Energy correction for multipole
  | error in Hartree potential    :           0.04395750 Ha           1.19614438 eV
  | Sum of eigenvalues per atom                           :        -378.56631471 eV
  | Total energy (T->0) per atom                          :        -677.09505947 eV  <-- do not rely on this value for anything but (periodic) metals
  | Electronic free energy per atom                       :        -677.09505947 eV

  Self-consistency convergence accuracy:
  | Change of charge density      :  0.6659E-01
  | Change of sum of eigenvalues  :  0.1749E+01 eV
  | Change of total energy        :  0.2518E-01 eV

  End self-consistency iteration #     4       :  max(cpu_time)    wall_clock(cpu1)
  | Time for this iteration                    :        1.196 s           1.197 s
  | Charge density update                      :        0.391 s           0.391 s
  | Density mixing                             :        0.010 s           0.009 s
  | Hartree multipole update                   :        0.009 s           0.009 s
  | Hartree multipole summation                :        0.282 s           0.283 s
  | Integration                                :        0.501 s           0.501 s
  | Solution of K.-S. eqns.                    :        0.002 s           0.003 s
  | Total energy evaluation                    :        0.000 s           0.000 s

  Partial memory accounting:
  | Current value for overall tracked memory usage on task 0  :           0.166 MB
  | Peak value for overall tracked memory usage on task 0     :           0.696 MB after allocating gradient_basis_wave
  | Largest tracked array allocation on task 0 so far         :           0.397 MB  when allocating gradient_basis_wave
  Note:  These values currently only include a subset of arrays which are explicitly tracked.
  The "true" memory usage will be greater.
------------------------------------------------------------

------------------------------------------------------------
          Begin self-consistency iteration #    5

  Date     :  20200805, Time     :  182607.521
------------------------------------------------------------
  Evaluating new KS density.
  Integration grid: deviation in total charge (<rho> - N_e) =   2.131628E-14
  Pulay mixing of updated and previous charge densities.

  Evaluating partitioned Hartree potential by multipole expansion.
  | Analytical far-field extrapolation by fixed multipoles:
  | Hartree multipole sum: apparent total charge =  -0.371308E-03
  Summing up the Hartree potential.
  Time summed over all CPUs for potential: real work        0.282 s, elapsed        0.282 s
  | RMS charge density error from multipole expansion :   0.258427E-01

  Integrating Hamiltonian matrix: batch-based integration.
  Time summed over all CPUs for integration: real work        0.502 s, elapsed        0.502 s

  Updating Kohn-Sham eigenvalues and eigenvectors using ELSI and the ELPA eigensolver.
  Finished Cholesky decomposition
  | Time :     0.000 s
  Finished transformation to standard eigenproblem
  | Time :     0.000 s
  Starting LAPACK eigensolver
  Finished solving standard eigenproblem
  | Time :     0.002 s
  Finished back-transformation of eigenvectors
  | Time :     0.000 s

  Obtaining occupation numbers and chemical potential using ELSI.
  | Chemical potential (Fermi level):    -3.06814868eV
  Highest occupied state (VBM) at     -6.02985305 eV
  | Occupation number:      2.00000000

  Lowest unoccupied state (CBM) at    -1.01939717 eV
  | Occupation number:      0.00000000

  Overall HOMO-LUMO gap:      5.01045588 eV.

  Total energy components:
  | Sum of eigenvalues            :        -180.97335184 Ha       -4924.53546120 eV
  | XC energy correction          :         -42.66813357 Ha       -1161.05898836 eV
  | XC potential correction       :          54.85811338 Ha        1492.76521601 eV
  | Free-atom electrostatic energy:        -146.74701089 Ha       -3993.18933743 eV
  | Hartree energy correction     :          -7.94551049 Ha        -216.20834088 eV
  | vdW energy correction         :           0.00000000 Ha           0.00000000 eV
  | Entropy correction            :           0.00000000 Ha           0.00000000 eV
  | ---------------------------
  | Total energy                  :        -323.47589340 Ha       -8802.22691185 eV
  | Total energy, T -> 0          :        -323.47589340 Ha       -8802.22691185 eV  <-- do not rely on this value for anything but (periodic) metals
  | Electronic free energy        :        -323.47589340 Ha       -8802.22691185 eV

  Derived energy quantities:
  | Kinetic energy                :         322.81145919 Ha        8784.14673693 eV
  | Electrostatic energy          :        -603.61921902 Ha      -16425.31466042 eV
  | Energy correction for multipole
  | error in Hartree potential    :           0.04337026 Ha           1.18016470 eV
  | Sum of eigenvalues per atom                           :        -378.81042009 eV
  | Total energy (T->0) per atom                          :        -677.09437783 eV  <-- do not rely on this value for anything but (periodic) metals
  | Electronic free energy per atom                       :        -677.09437783 eV

  Self-consistency convergence accuracy:
  | Change of charge density      :  0.2406E-01
  | Change of sum of eigenvalues  : -0.3173E+01 eV
  | Change of total energy        :  0.8861E-02 eV

  End self-consistency iteration #     5       :  max(cpu_time)    wall_clock(cpu1)
  | Time for this iteration                    :        1.198 s           1.199 s
  | Charge density update                      :        0.391 s           0.391 s
  | Density mixing                             :        0.011 s           0.012 s
  | Hartree multipole update                   :        0.009 s           0.009 s
  | Hartree multipole summation                :        0.283 s           0.282 s
  | Integration                                :        0.502 s           0.502 s
  | Solution of K.-S. eqns.                    :        0.002 s           0.003 s
  | Total energy evaluation                    :        0.000 s           0.000 s

  Partial memory accounting:
  | Current value for overall tracked memory usage on task 0  :           0.166 MB
  | Peak value for overall tracked memory usage on task 0     :           0.696 MB after allocating gradient_basis_wave
  | Largest tracked array allocation on task 0 so far         :           0.397 MB  when allocating gradient_basis_wave
  Note:  These values currently only include a subset of arrays which are explicitly tracked.
  The "true" memory usage will be greater.
------------------------------------------------------------

------------------------------------------------------------
          Begin self-consistency iteration #    6

  Date     :  20200805, Time     :  182608.722
------------------------------------------------------------
  Evaluating new KS density.
  Integration grid: deviation in total charge (<rho> - N_e) =   2.842171E-14
  Pulay mixing of updated and previous charge densities.

  Evaluating partitioned Hartree potential by multipole expansion.
  | Analytical far-field extrapolation by fixed multipoles:
  | Hartree multipole sum: apparent total charge =  -0.372333E-03
  Summing up the Hartree potential.
  Time summed over all CPUs for potential: real work        0.283 s, elapsed        0.283 s
  | RMS charge density error from multipole expansion :   0.261398E-01

  Integrating Hamiltonian matrix: batch-based integration.
  Time summed over all CPUs for integration: real work        0.502 s, elapsed        0.502 s

  Updating Kohn-Sham eigenvalues and eigenvectors using ELSI and the ELPA eigensolver.
  Finished Cholesky decomposition
  | Time :     0.000 s
  Finished transformation to standard eigenproblem
  | Time :     0.000 s
  Starting LAPACK eigensolver
  Finished solving standard eigenproblem
  | Time :     0.002 s
  Finished back-transformation of eigenvectors
  | Time :     0.000 s

  Obtaining occupation numbers and chemical potential using ELSI.
  | Chemical potential (Fermi level):    -3.09194848eV
  Highest occupied state (VBM) at     -6.05923953 eV
  | Occupation number:      2.00000000

  Lowest unoccupied state (CBM) at    -1.06126011 eV
  | Occupation number:      0.00000000

  Overall HOMO-LUMO gap:      4.99797942 eV.

  Total energy components:
  | Sum of eigenvalues            :        -181.04089663 Ha       -4926.37344842 eV
  | XC energy correction          :         -42.65917412 Ha       -1160.81518955 eV
  | XC potential correction       :          54.84646990 Ha        1492.44838104 eV
  | Free-atom electrostatic energy:        -146.74701089 Ha       -3993.18933743 eV
  | Hartree energy correction     :          -7.87519704 Ha        -214.29501476 eV
  | vdW energy correction         :           0.00000000 Ha           0.00000000 eV
  | Entropy correction            :           0.00000000 Ha           0.00000000 eV
  | ---------------------------
  | Total energy                  :        -323.47580878 Ha       -8802.22460912 eV
  | Total energy, T -> 0          :        -323.47580878 Ha       -8802.22460912 eV  <-- do not rely on this value for anything but (periodic) metals
  | Electronic free energy        :        -323.47580878 Ha       -8802.22460912 eV

  Derived energy quantities:
  | Kinetic energy                :         322.70544329 Ha        8781.26189752 eV
  | Electrostatic energy          :        -603.52207794 Ha      -16422.67131709 eV
  | Energy correction for multipole
  | error in Hartree potential    :           0.04341756 Ha           1.18145190 eV
  | Sum of eigenvalues per atom                           :        -378.95180372 eV
  | Total energy (T->0) per atom                          :        -677.09420070 eV  <-- do not rely on this value for anything but (periodic) metals
  | Electronic free energy per atom                       :        -677.09420070 eV

  Self-consistency convergence accuracy:
  | Change of charge density      :  0.1130E-01
  | Change of sum of eigenvalues  : -0.1838E+01 eV
  | Change of total energy        :  0.2303E-02 eV

  End self-consistency iteration #     6       :  max(cpu_time)    wall_clock(cpu1)
  | Time for this iteration                    :        1.199 s           1.200 s
  | Charge density update                      :        0.391 s           0.391 s
  | Density mixing                             :        0.012 s           0.013 s
  | Hartree multipole update                   :        0.009 s           0.009 s
  | Hartree multipole summation                :        0.283 s           0.283 s
  | Integration                                :        0.502 s           0.502 s
  | Solution of K.-S. eqns.                    :        0.002 s           0.002 s
  | Total energy evaluation                    :        0.000 s           0.000 s

  Partial memory accounting:
  | Current value for overall tracked memory usage on task 0  :           0.166 MB
  | Peak value for overall tracked memory usage on task 0     :           0.696 MB after allocating gradient_basis_wave
  | Largest tracked array allocation on task 0 so far         :           0.397 MB  when allocating gradient_basis_wave
  Note:  These values currently only include a subset of arrays which are explicitly tracked.
  The "true" memory usage will be greater.
------------------------------------------------------------

------------------------------------------------------------
          Begin self-consistency iteration #    7

  Date     :  20200805, Time     :  182609.925
------------------------------------------------------------
  Evaluating new KS density.
  Integration grid: deviation in total charge (<rho> - N_e) =   7.105427E-15
  Pulay mixing of updated and previous charge densities.

  Evaluating partitioned Hartree potential by multipole expansion.
  | Analytical far-field extrapolation by fixed multipoles:
  | Hartree multipole sum: apparent total charge =  -0.373731E-03
  Summing up the Hartree potential.
  Time summed over all CPUs for potential: real work        0.283 s, elapsed        0.283 s
  | RMS charge density error from multipole expansion :   0.262997E-01

  Integrating Hamiltonian matrix: batch-based integration.
  Time summed over all CPUs for integration: real work        0.509 s, elapsed        0.509 s

  Updating Kohn-Sham eigenvalues and eigenvectors using ELSI and the ELPA eigensolver.
  Finished Cholesky decomposition
  | Time :     0.000 s
  Finished transformation to standard eigenproblem
  | Time :     0.000 s
  Starting LAPACK eigensolver
  Finished solving standard eigenproblem
  | Time :     0.002 s
  Finished back-transformation of eigenvectors
  | Time :     0.000 s

[...]
  |   Hirshfeld dipole moment :      0.06086166
  |   Hirshfeld second moments:      0.00142315      -0.02508292      -0.01476106
  |                                 -0.02508292      -0.02412136       0.00754261
  |                                 -0.01476106       0.00754261      -0.01925641
  ----------------------------------------------------------------------
  | Atom    12: O
  |   Hirshfeld charge        :     -0.13390034
  |   Free atom volume        :     23.61338643
  |   Hirshfeld volume        :     21.00346580
  |   Hirshfeld dipole vector :      0.01326068       0.03757398      -0.00843999
  |   Hirshfeld dipole moment :      0.04072939
  |   Hirshfeld second moments:      0.06201070      -0.01419942       0.01588752
  |                                 -0.01419942       0.03405376       0.00522456
  |                                  0.01588752       0.00522456       0.07736225
  ----------------------------------------------------------------------
  | Atom    13: H
  |   Hirshfeld charge        :      0.12416451
  |   Free atom volume        :      9.95071624
  |   Hirshfeld volume        :      6.84591772
  |   Hirshfeld dipole vector :     -0.04193083       0.01335352      -0.06316701
  |   Hirshfeld dipole moment :      0.07698430
  |   Hirshfeld second moments:      0.11069222      -0.01368713       0.00921668
  |                                 -0.01368713       0.07138854       0.03205716
  |                                  0.00921668       0.03205716       0.09005638
  ----------------------------------------------------------------------


  Total energy components:
  | Sum of eigenvalues            :        -181.02790772 Ha       -4926.02000217 eV
  | XC energy correction          :         -42.65786906 Ha       -1160.77967691 eV
  | XC potential correction       :          54.84484080 Ha        1492.40405088 eV
  | Free-atom electrostatic energy:        -146.74701089 Ha       -3993.18933743 eV
  | Hartree energy correction     :          -7.88784602 Ha        -214.63921090 eV
  | vdW energy correction         :          -0.00334334 Ha          -0.09097692 eV
  | Entropy correction            :           0.00000000 Ha           0.00000000 eV
  | ---------------------------
  | Total energy                  :        -323.47913622 Ha       -8802.31515344 eV
  | Total energy, T -> 0          :        -323.47913622 Ha       -8802.31515344 eV  <-- do not rely on this value for anything but (periodic) metals
  | Electronic free energy        :        -323.47913622 Ha       -8802.31515344 eV

  Derived energy quantities:
  | Kinetic energy                :         322.67145335 Ha        8780.33698440 eV
  | Electrostatic energy          :        -603.48937718 Ha      -16421.78148401 eV
  | Energy correction for multipole
  | error in Hartree potential    :           0.04350287 Ha           1.18377334 eV
  | Sum of eigenvalues per atom                           :        -378.92461555 eV
  | Total energy (T->0) per atom                          :        -677.10116565 eV  <-- do not rely on this value for anything but (periodic) metals
  | Electronic free energy per atom                       :        -677.10116565 eV

  atomic forces [eV/Ang]:
  -----------------------
  atom #    1
   Hellmann-Feynman              :  0.524470E+00  0.242033E+00  0.150854E+01
   Ionic forces                  :  0.000000E+00  0.000000E+00  0.000000E+00
   Multipole                     :  0.214507E+00  0.142261E+00 -0.154349E+00
   Pulay + GGA                   : -0.952430E+00  0.143995E-01 -0.153059E+01
   Van der Waals                 :  0.199639E-02  0.122299E-02 -0.109922E-02
   ----------------------------------------------------------------
   Total forces(   1)            : -0.211456E+00  0.399917E+00 -0.177493E+00
  atom #    2
   Hellmann-Feynman              :  0.256164E+00 -0.207440E-01  0.523783E-01
   Ionic forces                  :  0.000000E+00  0.000000E+00  0.000000E+00
   Multipole                     :  0.178128E+00  0.121082E-01  0.899484E-02
   Pulay + GGA                   : -0.133888E+00  0.599212E-02  0.547382E-01
   Van der Waals                 :  0.496689E-02 -0.482679E-02 -0.566478E-02
   ----------------------------------------------------------------
   Total forces(   2)            :  0.305370E+00 -0.747055E-02  0.110447E+00
  atom #    3
   Hellmann-Feynman              : -0.695026E+01  0.981001E+01 -0.391235E+00
   Ionic forces                  :  0.000000E+00  0.000000E+00  0.000000E+00
   Multipole                     : -0.129548E+00  0.207314E+00 -0.676401E+00
   Pulay + GGA                   :  0.733992E+01 -0.921038E+01  0.167888E+01
   Van der Waals                 :  0.360158E-02 -0.517522E-02 -0.863354E-02
   ----------------------------------------------------------------
   Total forces(   3)            :  0.263710E+00  0.801771E+00  0.602612E+00
  atom #    4
   Hellmann-Feynman              : -0.573847E-01 -0.418124E+00 -0.254471E+00
   Ionic forces                  :  0.000000E+00  0.000000E+00  0.000000E+00
   Multipole                     :  0.424447E-01 -0.730667E-03 -0.119111E+00
   Pulay + GGA                   : -0.190123E+00  0.713136E-01  0.130890E+00
   Van der Waals                 : -0.161726E-02  0.209781E-02  0.444872E-02
   ----------------------------------------------------------------
   Total forces(   4)            : -0.206680E+00 -0.345443E+00 -0.238243E+00
  atom #    5
   Hellmann-Feynman              :  0.323749E+00  0.363480E+00 -0.135404E+01
   Ionic forces                  :  0.000000E+00  0.000000E+00  0.000000E+00
   Multipole                     : -0.889688E-01 -0.468177E-01 -0.220343E+00
   Pulay + GGA                   :  0.853887E-01  0.301566E+00 -0.556591E-01
   Van der Waals                 : -0.829104E-03  0.381472E-02  0.292529E-02
   ----------------------------------------------------------------
   Total forces(   5)            :  0.319339E+00  0.622044E+00 -0.162712E+01
  atom #    6
   Hellmann-Feynman              : -0.592045E-01 -0.370720E+00  0.494759E+00
   Ionic forces                  :  0.000000E+00  0.000000E+00  0.000000E+00
   Multipole                     : -0.108495E+00  0.618558E+00  0.242173E+00
   Pulay + GGA                   :  0.285321E+00 -0.588508E+00 -0.600743E+00
   Van der Waals                 : -0.372063E-02  0.288428E-02 -0.666600E-02
   ----------------------------------------------------------------
   Total forces(   6)            :  0.113901E+00 -0.337786E+00  0.129524E+00
  atom #    7
   Hellmann-Feynman              : -0.200867E+00 -0.512634E-01 -0.547912E-01
   Ionic forces                  :  0.000000E+00  0.000000E+00  0.000000E+00
   Multipole                     : -0.119399E+00  0.505131E-01  0.242756E-01
   Pulay + GGA                   :  0.121417E+00  0.131598E-01 -0.910963E-02
   Van der Waals                 : -0.115554E-02 -0.724449E-03  0.185411E-02
   ----------------------------------------------------------------
   Total forces(   7)            : -0.200004E+00  0.116851E-01 -0.377712E-01
  atom #    8
   Hellmann-Feynman              :  0.925769E-01 -0.597920E-01  0.141325E+00
   Ionic forces                  :  0.000000E+00  0.000000E+00  0.000000E+00
   Multipole                     :  0.145164E-01  0.645856E-01  0.126655E+00
   Pulay + GGA                   : -0.454594E-01 -0.400892E-01 -0.877468E-01
   Van der Waals                 : -0.272872E-02  0.112697E-01  0.142479E-02
   ----------------------------------------------------------------
   Total forces(   8)            :  0.589052E-01 -0.240259E-01  0.181658E+00
  atom #    9
   Hellmann-Feynman              :  0.967542E-01  0.210996E-01 -0.180589E+00
   Ionic forces                  :  0.000000E+00  0.000000E+00  0.000000E+00
   Multipole                     :  0.139659E-01  0.128178E+00 -0.126648E-01
   Pulay + GGA                   : -0.602729E-01 -0.821967E-01  0.434808E-01
   Van der Waals                 : -0.192504E-02  0.199733E-02  0.279271E-02
   ----------------------------------------------------------------
   Total forces(   9)            :  0.485222E-01  0.690786E-01 -0.146980E+00
  atom #   10
   Hellmann-Feynman              :  0.251535E+01  0.359829E+01  0.207546E+01
   Ionic forces                  :  0.000000E+00  0.000000E+00  0.000000E+00
   Multipole                     :  0.109753E+00 -0.414653E-01  0.214193E+00
   Pulay + GGA                   : -0.140049E+01 -0.254068E+01 -0.264775E+00
   Van der Waals                 :  0.351035E-02 -0.119322E-01 -0.419404E-03
   ----------------------------------------------------------------
   Total forces(  10)            :  0.122812E+01  0.100421E+01  0.202446E+01
  atom #   11
   Hellmann-Feynman              :  0.413855E+01 -0.235505E+01  0.142057E+02
   Ionic forces                  :  0.000000E+00  0.000000E+00  0.000000E+00
   Multipole                     :  0.134282E+00 -0.552316E+00  0.986628E+00
   Pulay + GGA                   : -0.351875E+01  0.348291E+01 -0.142251E+02
   Van der Waals                 : -0.139901E-02 -0.121920E-01  0.596366E-02
   ----------------------------------------------------------------
   Total forces(  11)            :  0.752687E+00  0.563357E+00  0.973196E+00
  atom #   12
   Hellmann-Feynman              : -0.537254E+01 -0.131813E+02  0.917222E+00
   Ionic forces                  :  0.000000E+00  0.000000E+00  0.000000E+00
   Multipole                     : -0.126909E+01 -0.167998E+01  0.641173E-01
   Pulay + GGA                   :  0.506041E+01  0.134248E+02 -0.250614E+01
   Van der Waals                 :  0.166669E-02  0.711476E-02  0.310883E-02
   ----------------------------------------------------------------
   Total forces(  12)            : -0.157956E+01 -0.142945E+01 -0.152169E+01
  atom #   13
   Hellmann-Feynman              : -0.102099E+01 -0.117927E+01 -0.651366E+00
   Ionic forces                  :  0.000000E+00  0.000000E+00  0.000000E+00
   Multipole                     :  0.497038E-02  0.637447E-01 -0.143961E-01
   Pulay + GGA                   :  0.124009E+00 -0.216532E+00  0.386302E+00
   Van der Waals                 : -0.236658E-02  0.444905E-02 -0.351742E-04
   ----------------------------------------------------------------
   Total forces(  13)            : -0.894376E+00 -0.132761E+01 -0.279495E+00

  Timings for VdW correction (Tkatchenko-Scheffler 2009 or later):
  | CPU time:        0.091 s, Wall clock time:        0.092 s.
  Removing unitary transformations (pure translations, rotations) from forces on atoms.
  Atomic forces before filtering:
  | Net force on center of mass :  -0.151799E-02  0.272821E-03 -0.689626E-02 eV/A
  | Net torque on center of mass:   0.342392E-02  0.209433E-02 -0.332123E-02 eV
  Atomic forces after filtering:
  | Net force on center of mass :   0.356812E-15  0.713624E-15  0.133805E-15 eV/A
  | Net torque on center of mass:  -0.188817E-15 -0.141613E-15  0.132172E-14 eV

  Energy and forces in a compact form:
  | Total energy uncorrected      :         -0.880231515344187E+04 eV
  | Total energy corrected        :         -0.880231515344187E+04 eV  <-- do not rely on this value for anything but (periodic) metals
  | Electronic free energy        :         -0.880231515344187E+04 eV
  Total atomic forces (unitary forces cleaned) [eV/Ang]:
  |   1         -0.211348999940335E+00          0.399937764624919E+00         -0.176939204053472E+00
  |   2          0.305477895359162E+00         -0.732856091544787E-02          0.111091674136280E+00
  |   3          0.263934693461320E+00          0.801608657256698E+00          0.603126455382422E+00
  |   4         -0.206412400392491E+00         -0.345573258433877E+00         -0.237669073686133E+00
  |   5          0.319675673121896E+00          0.621810113102112E+00         -0.162656242736002E+01
  |   6          0.113807491652764E+00         -0.337753429283976E+00          0.129920285496721E+00
  |   7         -0.200101832942107E+00          0.115984429924163E-01         -0.374679032012676E-01
  |   8          0.587248488434671E-01         -0.238579489364798E-01          0.182083812860225E+00
  |   9          0.483715001326133E-01          0.691052061415170E-01         -0.146635675408424E+00
  |  10          0.122830822275534E+01          0.100425456667822E+01          0.202509846586694E+01
  |  11          0.752811327676531E+00          0.563539541779186E+00          0.973885994877534E+00
  |  12         -0.157921784010598E+01         -0.142954768515845E+01         -0.152103423167700E+01
  |  13         -0.894030579622178E+00         -0.132779340984684E+01         -0.278898173233806E+00

  ------------------------------------ 
  Start decomposition of the XC Energy 
  ------------------------------------ 
  X and C from original XC functional choice 
  Hartree-Fock Energy :          0.000000000 Ha              0.000000000 eV
  X Energy            :        -41.053530644 Ha          -1117.123407436 eV
  C Energy            :         -1.604338415 Ha            -43.656269471 eV
  Total XC Energy     :        -42.657869059 Ha          -1160.779676908 eV
  ------------------------------------ 
  LDA X and C from self-consistent density 
  X Energy LDA        :        -37.276193180 Ha          -1014.336825329 eV
  C Energy LDA        :         -3.140266948 Ha            -85.451011343 eV
  ------------------------------------ 
  End decomposition of the XC Energy 
  ------------------------------------ 

------------------------------------------------------------

------------------------------------------------------------------------------
  Final output of selected total energy values:

  The following output summarizes some interesting total energy values
  at the end of a run (AFTER all relaxation, molecular dynamics, etc.).

  | Total energy of the DFT / Hartree-Fock s.c.f. calculation      :          -8802.315153442 eV
  | Final zero-broadening corrected energy (caution - metals only) :          -8802.315153442 eV
  | For reference only, the value of 1 Hartree used in FHI-aims is :             27.211384500 eV

  Before relying on these values, please be sure to understand exactly which
  total energy value is referred to by a given number. Different objects may
  all carry the same name 'total energy'. Definitions:

  Total energy of the DFT / Hartree-Fock s.c.f. calculation:
  | Note that this energy does not include ANY quantities calculated after the
  | s.c.f. cycle, in particular not ANY RPA, MP2, etc. many-body perturbation terms.

  Final zero-broadening corrected energy:
  | For metallic systems only, a broadening of the occupation numbers at the Fermi
  | level can be extrapolated back to zero broadening by an electron-gas inspired
  | formula. For all systems that are not real metals, this value can be
  | meaningless and should be avoided.

------------------------------------------------------------------------------
  Methods described in the following list of references were used in this FHI-aims run.
  If you publish the results, please make sure to cite these reference if they apply.
  FHI-aims is an academic code, and for our developers (often, Ph.D. students
  and postdocs), scientific credit in the community is essential.
  Thank you for helping us!

  For any use of FHI-aims, please cite:

    Volker Blum, Ralf Gehrke, Felix Hanke, Paula Havu, Ville Havu,
    Xinguo Ren, Karsten Reuter, and Matthias Scheffler
    'Ab initio molecular simulations with numeric atom-centered orbitals'
    Computer Physics Communications 180, 2175-2196 (2009)
    http://dx.doi.org/10.1016/j.cpc.2009.06.022


  The scalable eigensolver library ELPA was used in your run.
  ELPA is essential especially for large systems on hundreds or thousands of CPUs.
  For ELPA, please cite:

    Andreas Marek, Volker Blum, Rainer Johanni, Ville Havu, Bruno Lang,
    Thomas Auckenthaler, Alexander Heinecke, Hans-Joachim Bungartz, and Hermann Lederer,
    'The ELPA Library - Scalable Parallel Eigenvalue Solutions
    for Electronic Structure Theory and Computational Science'
    The Journal of Physics: Condensed Matter 26, 213201 (2014).
    http://dx.doi.org/10.1088/0953-8984/26/21/213201


  The ELSI infrastructure was used in your run to solve the Kohn-Sham electronic structure.
  Please check out http://elsi-interchange.org to learn more.
  If scalability is important for your project, please acknowledge ELSI by citing:

    V. W-z. Yu, F. Corsetti, A. Garcia, W. P. Huhn, M. Jacquelin, W. Jia,
    B. Lange, L. Lin, J. Lu, W. Mi, A. Seifitokaldani, A. Vazquez-Mayagoitia,
    C. Yang, H. Yang, and V. Blum
    'ELSI: A unified software interface for Kohn-Sham electronic structure solvers'
    Computer Physics Communications 222, 267-285 (2018).
    http://dx.doi.org/10.1016/j.cpc.2017.09.007


  For the real-space grid partitioning and parallelization used in this calculation, please cite:

    Ville Havu, Volker Blum, Paula Havu, and Matthias Scheffler,
    'Efficient O(N) integration for all-electron electronic structure calculation'
    'using numerically tabulated basis functions'
    Journal of Computational Physics 228, 8367-8379 (2009).
    http://dx.doi.org/10.1016/j.jcp.2009.08.008

  Of course, there are many other important community references, e.g., those cited in the
  above references. Our list is limited to references that describe implementations in the
  FHI-aims code. The reason is purely practical (length of this list) - please credit others as well.

------------------------------------------------------------
          Leaving FHI-aims.
          Date     :  20200805, Time     :  182624.402

          Computational steps:
          | Number of self-consistency cycles          :           16
          | Number of SCF (re)initializations          :            1

          Detailed time accounting                     :  max(cpu_time)    wall_clock(cpu1)
          | Total time                                 :       22.931 s          23.013 s
          | Preparation time                           :        0.148 s           0.150 s
          | Boundary condition initalization           :        0.000 s           0.000 s
          | Grid partitioning                          :        0.113 s           0.113 s
          | Preloading free-atom quantities on grid    :        0.002 s           0.002 s
          | Free-atom superposition energy             :        0.085 s           0.086 s
          | Total time for integrations                :        8.735 s           8.748 s
          | Total time for solution of K.-S. equations :        0.037 s           0.040 s
          | Total time for density & force components  :        7.236 s           7.244 s
          | Total time for mixing                      :        0.219 s           0.223 s
          | Total time for Hartree multipole update    :        0.140 s           0.142 s
          | Total time for Hartree multipole sum       :        5.808 s           5.816 s
          | Total time for total energy evaluation     :        0.003 s           0.001 s
          | Total time for vdW correction              :        0.091 s           0.092 s

          Partial memory accounting:
          | Residual value for overall tracked memory usage across tasks :           0.000 MB (should be 0.000 MB)
          | Peak values for overall tracked memory usage (after allocating hessian_basis_wave):
          |   Minimum:        1.622 MB (on task 1)
          |   Maximum:        1.622 MB (on task 1)
          |   Average:        1.622 MB
          | Largest tracked array allocation (hessian_basis_wave):
          |   Minimum:        0.794 MB (on task 1)
          |   Maximum:        0.794 MB (on task 1)
          |   Average:        0.794 MB
          Note:  These values currently only include a subset of arrays which are explicitly tracked.
          The "true" memory usage will be greater.

          Have a nice day.
------------------------------------------------------------
