  MPI-parallelism will be employed.
------------------------------------------------------------
          Invoking FHI-aims ...
          Version 171221_1
          Compiled on 2019/09/09 at 14:39:39 on host puhti-login2.bullx.

          When using FHI-aims, please cite the following reference:

          Volker Blum, Ralf Gehrke, Felix Hanke, Paula Havu,
          Ville Havu, Xinguo Ren, Karsten Reuter, and Matthias Scheffler,
          'Ab Initio Molecular Simulations with Numeric Atom-Centered Orbitals',
          Computer Physics Communications 180, 2175-2196 (2009)

          For any questions about FHI-aims, please visit the aimsclub website
          with its forums and wiki. Contributions to both the forums and the
          wiki are warmly encouraged - they are for you, and everyone is welcome there.

------------------------------------------------------------



  Date     :  20200710, Time     :  145537.941
  Time zero on CPU 1             :   0.112690000000000E-01  s.
  Internal wall clock time zero  :           363624937.941  s.

  FHI-aims created a unique identifier for this run for later identification
  aims_uuid : 51AC24DA-BDA6-41D7-A346-A4B14599EA58

  Using        1 parallel tasks.
  Task        0 on host r18c45.bullx reporting.

  Performing system and environment tests:
  | Environment variable OMP_NUM_THREADS correctly set to 1.
  | Stacksize not measured: no C compiler
  | Checking for scalapack...
  | Testing pdtran()...
  | All pdtran() tests passed.

  Obtaining array dimensions for all initial allocations:
  
  -----------------------------------------------------------------------
  Parsing control.in (first pass over file, find array dimensions only).
  The contents of control.in will be repeated verbatim below
  unless switched off by setting 'verbatim_writeout .false.' .
  in the first line of control.in .
  -----------------------------------------------------------------------
  
  #########################################################################################
  #
  #  Volker Blum, FHI 2009 : Test run input file control.in for simple H2O
  #
  #########################################################################################
  #
  #  Physical model
  #
    xc                 pbe
    vdw_correction_hirshfeld
    spin               none
    relativistic       none
    charge             0.
  #
  #  SCF convergence
  #
    occupation_type    gaussian 0.01
    mixer              pulay
      n_max_pulay        10
      charge_mix_param   0.2
    sc_accuracy_rho    1E-5
    sc_accuracy_eev    1E-3
    sc_accuracy_etot   1E-6
    sc_accuracy_forces 1E-4
    sc_iter_limit      100
  #
  #  Relaxation
  #
  #  relax_geometry   bfgs 1.e-3
  #
  ################################################################################
  #
  #  FHI-aims code project
  #  VB, Fritz-Haber Institut, 2009
  #
  #  Suggested "light" defaults for H atom (to be pasted into control.in file)
  #  Be sure to double-check any results obtained with these settings for post-processing,
  #  e.g., with the "tight" defaults and larger basis sets.
  #
  ################################################################################
    species        H
  #     global species definitions
      nucleus             1
      mass                1.00794
  #
      l_hartree           4
  #
      cut_pot             3.5  1.5  1.0
      basis_dep_cutoff    1e-4
  #
      radial_base         24 5.0
      radial_multiplier   1
      angular_grids       specified
        division   0.2421   50
        division   0.3822  110
        division   0.4799  194
        division   0.5341  302
  #      division   0.5626  434
  #      division   0.5922  590
  #      division   0.6542  770
  #      division   0.6868 1202
  #      outer_grid  770
        outer_grid  302
  ################################################################################
  #
  #  Definition of "minimal" basis
  #
  ################################################################################
  #     valence basis states
      valence      1  s   1.
  #     ion occupancy
      ion_occ      1  s   0.5
  ################################################################################
  #
  #  Suggested additional basis functions. For production calculations,
  #  uncomment them one after another (the most important basis functions are
  #  listed first).
  #
  #  Basis constructed for dimers: 0.5 A, 0.7 A, 1.0 A, 1.5 A, 2.5 A
  #
  ################################################################################
  #  "First tier" - improvements: -1014.90 meV to -62.69 meV
       hydro 2 s 2.1
       hydro 2 p 3.5
  #  "Second tier" - improvements: -12.89 meV to -1.83 meV
  #     hydro 1 s 0.85
  #     hydro 2 p 3.7
  #     hydro 2 s 1.2
  #     hydro 3 d 7
  #  "Third tier" - improvements: -0.25 meV to -0.12 meV
  #     hydro 4 f 11.2
  #     hydro 3 p 4.8
  #     hydro 4 d 9
  #     hydro 3 s 3.2
  ################################################################################
  #
  #  FHI-aims code project
  #  VB, Fritz-Haber Institut, 2009
  #
  #  Suggested "light" defaults for C atom (to be pasted into control.in file)
  #  Be sure to double-check any results obtained with these settings for post-processing,
  #  e.g., with the "tight" defaults and larger basis sets.
  #
  ################################################################################
    species        C
  #     global species definitions
      nucleus             6
      mass                12.0107
  #
      l_hartree           4
  #
      cut_pot             3.5  1.5  1.0
      basis_dep_cutoff    1e-4
  #
      radial_base         34 5.0
      radial_multiplier   1
      angular_grids specified
        division   0.3326   50
        division   0.5710  110
        division   0.7727  194
        division   0.8772  302
  #      division   0.9334  434
  #      division   0.9625  590
  #      division   0.9924  770
  #      division   1.0230  974
  #      division   1.4589 1202
  #     outer_grid  974
       outer_grid 302
  ################################################################################
  #
  #  Definition of "minimal" basis
  #
  ################################################################################
  #     valence basis states
      valence      2  s   2.
      valence      2  p   2.
  #     ion occupancy
      ion_occ      2  s   1.
      ion_occ      2  p   1.
  ################################################################################
  #
  #  Suggested additional basis functions. For production calculations,
  #  uncomment them one after another (the most important basis functions are
  #  listed first).
  #
  #  Constructed for dimers: 1.0 A, 1.25 A, 1.5 A, 2.0 A, 3.0 A
  #
  ################################################################################
  #  "First tier" - improvements: -1214.57 meV to -155.61 meV
       hydro 2 p 1.7
       hydro 3 d 6
       hydro 2 s 4.9
  #  "Second tier" - improvements: -67.75 meV to -5.23 meV
  #     hydro 4 f 9.8
  #     hydro 3 p 5.2
  #     hydro 3 s 4.3
  #     hydro 5 g 14.4
  #     hydro 3 d 6.2
  #  "Third tier" - improvements: -2.43 meV to -0.60 meV
  #     hydro 2 p 5.6
  #     hydro 2 s 1.4
  #     hydro 3 d 4.9
  #     hydro 4 f 11.2
  #  "Fourth tier" - improvements: -0.39 meV to -0.18 meV
  #     hydro 2 p 2.1
  #     hydro 5 g 16.4
  #     hydro 4 d 13.2
  #     hydro 3 s 13.6
  #     hydro 4 f 17.6
  #  Further basis functions - improvements: -0.08 meV and below
  #     hydro 3 s 2
  #     hydro 3 p 6
  #     hydro 4 d 20
  ################################################################################
  #
  #  FHI-aims code project
  #  VB, Fritz-Haber Institut, 2009
  #
  #  Suggested "light" defaults for N atom (to be pasted into control.in file)
  #  Be sure to double-check any results obtained with these settings for post-processing,
  #  e.g., with the "tight" defaults and larger basis sets.
  #
  ################################################################################
    species        N
  #     global species definitions
      nucleus             7
      mass                14.0067
  #
      l_hartree           4
  #
      cut_pot             3.5  1.5  1.0
      basis_dep_cutoff    1e-4
  #
      radial_base         35 5.0
      radial_multiplier   1
      angular_grids       specified
        division   0.2599   50
        division   0.4601  110
        division   0.5885  194
        division   0.6503  302
  #      division   0.6939  434
  #      division   0.7396  590
  #      division   0.7632  770
  #      division   0.8122  974
  #      division   1.1604 1202
  #      outer_grid  974
        outer_grid  302
  ################################################################################
  #
  #  Definition of "minimal" basis
  #
  ################################################################################
  #     valence basis states
      valence      2  s   2.
      valence      2  p   3.
  #     ion occupancy
      ion_occ      2  s   1.
      ion_occ      2  p   2.
  ################################################################################
  #
  #  Suggested additional basis functions. For production calculations,
  #  uncomment them one after another (the most important basis functions are
  #  listed first).
  #
  #  Constructed for dimers: 1.0 A, 1.1 A, 1.5 A, 2.0 A, 3.0 A
  #
  ################################################################################
  #  "First tier" - improvements: -1193.42 meV to -220.60 meV
       hydro 2 p 1.8
       hydro 3 d 6.8
       hydro 3 s 5.8
  #  "Second tier" - improvements: -80.21 meV to -6.86 meV
  #     hydro 4 f 10.8
  #     hydro 3 p 5.8
  #     hydro 1 s 0.8
  #     hydro 5 g 16
  #     hydro 3 d 4.9
  #  "Third tier" - improvements: -4.29 meV to -0.53 meV
  #     hydro 3 s 16
  #     ionic 2 p auto
  #     hydro 3 d 6.6
  #     hydro 4 f 11.6
  #  "Fourth tier" - improvements: -0.75 meV to -0.25 meV
  #     hydro 2 p 4.5
  #     hydro 2 s 2.4
  #     hydro 5 g 14.4
  #     hydro 4 d 14.4
  #     hydro 4 f 16.8
  # Further basis functions - -0.21 meV and below
  #     hydro 3 p 14.8
  #     hydro 3 s 4.4
  #     hydro 3 d 19.6
  #     hydro 5 g 12.8
  ################################################################################
  #
  #  FHI-aims code project
  #  VB, Fritz-Haber Institut, 2009
  #
  #  Suggested "light" defaults for O atom (to be pasted into control.in file)
  #  Be sure to double-check any results obtained with these settings for post-processing,
  #  e.g., with the "tight" defaults and larger basis sets.
  #
  ################################################################################
    species        O
  #     global species definitions
      nucleus             8
      mass                15.9994
  #
      l_hartree           4
  #
      cut_pot             3.5  1.5  1.0
      basis_dep_cutoff    1e-4
  #
      radial_base         36 5.0
      radial_multiplier   1
       angular_grids specified
        division   0.2659   50
        division   0.4451  110
        division   0.6052  194
        division   0.7543  302
  #      division   0.8014  434
  #      division   0.8507  590
  #      division   0.8762  770
  #      division   0.9023  974
  #      division   1.2339 1202
  #      outer_grid 974
        outer_grid 302
  ################################################################################
  #
  #  Definition of "minimal" basis
  #
  ################################################################################
  #     valence basis states
      valence      2  s   2.
      valence      2  p   4.
  #     ion occupancy
      ion_occ      2  s   1.
      ion_occ      2  p   3.
  ################################################################################
  #
  #  Suggested additional basis functions. For production calculations,
  #  uncomment them one after another (the most important basis functions are
  #  listed first).
  #
  #  Constructed for dimers: 1.0 A, 1.208 A, 1.5 A, 2.0 A, 3.0 A
  #
  ################################################################################
  #  "First tier" - improvements: -699.05 meV to -159.38 meV
       hydro 2 p 1.8
       hydro 3 d 7.6
       hydro 3 s 6.4
  #  "Second tier" - improvements: -49.91 meV to -5.39 meV
  #     hydro 4 f 11.6
  #     hydro 3 p 6.2
  #     hydro 3 d 5.6
  #     hydro 5 g 17.6
  #     hydro 1 s 0.75
  #  "Third tier" - improvements: -2.83 meV to -0.50 meV
  #     ionic 2 p auto
  #     hydro 4 f 10.8
  #     hydro 4 d 4.7
  #     hydro 2 s 6.8
  #  "Fourth tier" - improvements: -0.40 meV to -0.12 meV
  #     hydro 3 p 5
  #     hydro 3 s 3.3
  #     hydro 5 g 15.6
  #     hydro 4 f 17.6
  #     hydro 4 d 14
  # Further basis functions - -0.08 meV and below
  #     hydro 3 s 2.1
  #     hydro 4 d 11.6
  #     hydro 3 p 16
  #     hydro 2 s 17.2
  
  -----------------------------------------------------------------------
  Completed first pass over input file control.in .
  -----------------------------------------------------------------------
  
  
  -----------------------------------------------------------------------
  Parsing geometry.in (first pass over file, find array dimensions only).
  The contents of geometry.in will be repeated verbatim below
  unless switched off by setting 'verbatim_writeout .false.' .
  in the first line of geometry.in .
  -----------------------------------------------------------------------
  
  atom  0.00000 0.00000 0.00000 C
  atom  1.09300 0.00000 0.00000 H
  atom  -0.47961 0.00000 -1.41207 N
  atom  0.20258 -0.49332 -1.98921 H
  atom  -1.38057 -0.47208 -1.45126 H
  atom  -0.49584 1.26211 0.72868 C
  atom  -1.58789 1.28919 0.74431 H
  atom  -0.13407 1.27425 1.75947 H
  atom  -0.13407 2.16087 0.22380 H
  atom  -0.39425 -1.28861 0.74398 C
  atom  -0.10189 -1.56493 1.88303 O
  atom  -1.10210 -2.13717 0.06896 O
  atom  -1.23535 -2.79891 0.76848 H
  
  -----------------------------------------------------------------------
  Completed first pass over input file geometry.in .
  -----------------------------------------------------------------------
  

  Basic array size parameters:
  | Number of species                 :        4
  | Number of atoms                   :       13
  | Max. basis fn. angular momentum   :        2
  | Max. atomic/ionic basis occupied n:        2
  | Max. number of basis fn. types    :        2
  | Max. radial fns per species/type  :        3
  | Max. logarithmic grid size        :     1301
  | Max. radial integration grid size :       36
  | Max. angular integration grid size:      302
  | Max. angular grid division number :        8
  | Radial grid for Hartree potential :     1301
  | Number of spin channels           :        1

------------------------------------------------------------
          Reading file control.in.
------------------------------------------------------------
  XC: Using PBE gradient-corrected functionals.
  Spin treatment: No spin polarisation.
  Non-relativistic treatment of kinetic energy.
  Charge =   0.000000E+00: Neutral system requested explicitly.
  Occupation type: Gaussian broadening, width =   0.100000E-01 eV.
  Using pulay charge density mixing.
  Pulay mixing - number of memorized iterations:   10
  Charge density mixing - mixing parameter:     0.2000
  Convergence accuracy of self-consistent charge density:  0.1000E-04
  Convergence accuracy of sum of eigenvalues:  0.1000E-02
  Convergence accuracy of total energy:  0.1000E-05
  Convergence accuracy of forces:  0.1000E-03
  Maximum number of s.-c. iterations  :   100
 
  Reading configuration options for species H                   .
  | Found nuclear charge :   1.0000
  | Found atomic mass :    1.00794000000000      amu
  | Found l_max for Hartree potential  :   4
  | Found cutoff potl. onset [A], width [A], scale factor :    3.50000    1.50000    1.00000
  | Threshold for basis-dependent cutoff potential is   0.100000E-03
  | Found data for basic radial integration grid :    24 points, outermost radius =    5.000 A
  | Found multiplier for basic radial grid :   1
  | Found angular grid specification: user-specified.
  | Specified grid contains     5 separate shells.
  | Check grid settings after all constraints further below.
  | Found free-atom valence shell :  1 s   1.000
  | No ionic wave fns used. Skipping ion_occ.
  | Found hydrogenic basis function :  2 s   2.100
  | Found hydrogenic basis function :  2 p   3.500
  Species H                   : Missing cutoff potential type.
  Defaulting to exp(1/x)/(1-x)^2 type cutoff potential.
  Species H : No 'logarithmic' tag. Using default grid for free atom:
  | Default logarithmic grid data [bohr] : 0.1000E-03 0.1000E+03 0.1012E+01
  Species H : On-site basis accuracy parameter (for Gram-Schmidt orthonormalisation) not specified.
  Using default value basis_acc =  0.1000000E-03.
  Species H                   : Using default innermost maximum threshold i_radial=  2 for radial functions.
  Species H                   : Default cutoff onset for free atom density etc. : 0.35000000E+01 AA.
  Species H                   : Basic radial grid will be enhanced according to radial_multiplier =   1, to contain    24 grid points.
 
  Reading configuration options for species C                   .
  | Found nuclear charge :   6.0000
  | Found atomic mass :    12.0107000000000      amu
  | Found l_max for Hartree potential  :   4
  | Found cutoff potl. onset [A], width [A], scale factor :    3.50000    1.50000    1.00000
  | Threshold for basis-dependent cutoff potential is   0.100000E-03
  | Found data for basic radial integration grid :    34 points, outermost radius =    5.000 A
  | Found multiplier for basic radial grid :   1
  | Found angular grid specification: user-specified.
  | Specified grid contains     5 separate shells.
  | Check grid settings after all constraints further below.
  | Found free-atom valence shell :  2 s   2.000
  | Found free-atom valence shell :  2 p   2.000
  | No ionic wave fns used. Skipping ion_occ.
  | No ionic wave fns used. Skipping ion_occ.
  | Found hydrogenic basis function :  2 p   1.700
  | Found hydrogenic basis function :  3 d   6.000
  | Found hydrogenic basis function :  2 s   4.900
  Species C                   : Missing cutoff potential type.
  Defaulting to exp(1/x)/(1-x)^2 type cutoff potential.
  Species C : No 'logarithmic' tag. Using default grid for free atom:
  | Default logarithmic grid data [bohr] : 0.1000E-03 0.1000E+03 0.1012E+01
  Species C : On-site basis accuracy parameter (for Gram-Schmidt orthonormalisation) not specified.
  Using default value basis_acc =  0.1000000E-03.
  Species C                   : Using default innermost maximum threshold i_radial=  2 for radial functions.
  Species C                   : Default cutoff onset for free atom density etc. : 0.35000000E+01 AA.
  Species C                   : Basic radial grid will be enhanced according to radial_multiplier =   1, to contain    34 grid points.
 
  Reading configuration options for species N                   .
  | Found nuclear charge :   7.0000
  | Found atomic mass :    14.0067000000000      amu
  | Found l_max for Hartree potential  :   4
  | Found cutoff potl. onset [A], width [A], scale factor :    3.50000    1.50000    1.00000
  | Threshold for basis-dependent cutoff potential is   0.100000E-03
  | Found data for basic radial integration grid :    35 points, outermost radius =    5.000 A
  | Found multiplier for basic radial grid :   1
  | Found angular grid specification: user-specified.
  | Specified grid contains     5 separate shells.
  | Check grid settings after all constraints further below.
  | Found free-atom valence shell :  2 s   2.000
  | Found free-atom valence shell :  2 p   3.000
  | No ionic wave fns used. Skipping ion_occ.
  | No ionic wave fns used. Skipping ion_occ.
  | Found hydrogenic basis function :  2 p   1.800
  | Found hydrogenic basis function :  3 d   6.800
  | Found hydrogenic basis function :  3 s   5.800
  Species N                   : Missing cutoff potential type.
  Defaulting to exp(1/x)/(1-x)^2 type cutoff potential.
  Species N : No 'logarithmic' tag. Using default grid for free atom:
  | Default logarithmic grid data [bohr] : 0.1000E-03 0.1000E+03 0.1012E+01
  Species N : On-site basis accuracy parameter (for Gram-Schmidt orthonormalisation) not specified.
  Using default value basis_acc =  0.1000000E-03.
  Species N                   : Using default innermost maximum threshold i_radial=  2 for radial functions.
  Species N                   : Default cutoff onset for free atom density etc. : 0.35000000E+01 AA.
  Species N                   : Basic radial grid will be enhanced according to radial_multiplier =   1, to contain    35 grid points.
 
  Reading configuration options for species O                   .
  | Found nuclear charge :   8.0000
  | Found atomic mass :    15.9994000000000      amu
  | Found l_max for Hartree potential  :   4
  | Found cutoff potl. onset [A], width [A], scale factor :    3.50000    1.50000    1.00000
  | Threshold for basis-dependent cutoff potential is   0.100000E-03
  | Found data for basic radial integration grid :    36 points, outermost radius =    5.000 A
  | Found multiplier for basic radial grid :   1
  | Found angular grid specification: user-specified.
  | Specified grid contains     5 separate shells.
  | Check grid settings after all constraints further below.
  | Found free-atom valence shell :  2 s   2.000
  | Found free-atom valence shell :  2 p   4.000
  | No ionic wave fns used. Skipping ion_occ.
  | No ionic wave fns used. Skipping ion_occ.
  | Found hydrogenic basis function :  2 p   1.800
  | Found hydrogenic basis function :  3 d   7.600
  | Found hydrogenic basis function :  3 s   6.400
  Species O                   : Missing cutoff potential type.
  Defaulting to exp(1/x)/(1-x)^2 type cutoff potential.
  Species O : No 'logarithmic' tag. Using default grid for free atom:
  | Default logarithmic grid data [bohr] : 0.1000E-03 0.1000E+03 0.1012E+01
  Species O : On-site basis accuracy parameter (for Gram-Schmidt orthonormalisation) not specified.
  Using default value basis_acc =  0.1000000E-03.
  Species O                   : Using default innermost maximum threshold i_radial=  2 for radial functions.
  Species O                   : Default cutoff onset for free atom density etc. : 0.35000000E+01 AA.
  Species O                   : Basic radial grid will be enhanced according to radial_multiplier =   1, to contain    36 grid points.
 
  Finished reading input file 'control.in'. Consistency checks are next.
 
  MPI_IN_PLACE appears to work with this MPI implementation.
  | Keeping use_mpi_in_place .true. (see manual).
  Target number of points in a grid batch is not set. Defaulting to  100
  Method for grid partitioning is not set. Defaulting to parallel hash+maxmin partitioning.
  Batch size limit is not set. Defaulting to    200
  By default, will store active basis functions for each batch.
  If in need of memory, prune_basis_once .false. can be used to disable this option.
  communication_type for Hartree potential was not specified.
  Defaulting to calc_hartree .
  Pulay mixer: Number of initial linear mixing iterations not set.
  Defaulting to    0 iterations.
  Work space size for distributed Hartree potential not set.
  Defaulting to   0.200000E+03 MB.
  Algorithm-dependent basis array size parameters:
  | n_max_pulay                         :       10
  Presetting      1001 iterations before the initial mixing cycle
  is restarted anyway using the sc_init_iter criterion / keyword.
  Presetting a factor      1.000 between actual scf density residual
  and density convergence criterion sc_accuracy_rho below which sc_init_iter
  takes no effect.
  Geometry relaxation not requested: no relaxation will be performed.
  Handling of forces: Unphysical translation and rotation will be removed from forces.
  No accuracy limit for integral partition fn. given. Defaulting to  0.1000E-14.
  No threshold value for u(r) in integrations given. Defaulting to  0.1000E-05.
  No accuracy for occupation numbers given. Defaulting to  0.1000E-12.
  No threshold value for occupation numbers given. Defaulting to  0.0000E+00.
  No accuracy for fermi level given. Defaulting to  0.1000E-19.
  Maximum # of iterations to find E_F not set. Defaulting to  200.
  Preferred method for the eigenvalue solver ('KS_method') not specified in 'control.in'.
  Defaulting to serial version, 'lapack_fast'.
  Will not use alltoall communication since running on < 1024 CPUs.
  Threshold for basis singularities not set.
  Default threshold for basis singularities:  0.1000E-04
  partition_type (choice of integration weights) for integrals was not specified.
  | Using a version of the partition function of Stratmann and coworkers ('stratmann_smoother').
  | At each grid point, the set of atoms used to build the partition table is smoothly restricted to
  | only those atoms whose free-atom density would be non-zero at that grid point.
  Partitioning for Hartree potential was not defined. Using partition_type for integrals.
  | Adjusted default value of keyword multip_moments_threshold to:       0.10000000E-11
  | This value may affect high angular momentum components of the Hartree potential in periodic systems.
  No q(lm)/r^(l+1) cutoff set for long-range Hartree potential.
  | Using default value of  0.100000E-09 .
  | Verify using the multipole_threshold keyword.
  Defaulting to new monopole extrapolation.
  Density update method: automatic selection selected.
------------------------------------------------------------


------------------------------------------------------------
          Reading geometry description geometry.in.
------------------------------------------------------------
  Input structure read successfully.
  The structure contains       13 atoms,  and a total of         48.000 electrons.

  Input geometry:
  | No unit cell requested.
  | Atomic structure:
  |       Atom                x [A]            y [A]            z [A]
  |    1: Species C             0.00000000        0.00000000        0.00000000
  |    2: Species H             1.09300000        0.00000000        0.00000000
  |    3: Species N            -0.47961000        0.00000000       -1.41207000
  |    4: Species H             0.20258000       -0.49332000       -1.98921000
  |    5: Species H            -1.38057000       -0.47208000       -1.45126000
  |    6: Species C            -0.49584000        1.26211000        0.72868000
  |    7: Species H            -1.58789000        1.28919000        0.74431000
  |    8: Species H            -0.13407000        1.27425000        1.75947000
  |    9: Species H            -0.13407000        2.16087000        0.22380000
  |   10: Species C            -0.39425000       -1.28861000        0.74398000
  |   11: Species O            -0.10189000       -1.56493000        1.88303000
  |   12: Species O            -1.10210000       -2.13717000        0.06896000
  |   13: Species H            -1.23535000       -2.79891000        0.76848000
  |

  | The smallest distance between any two atoms is         0.97210268 AA.
  |
  | The first atom of this pair is atom number                     12 .
  | The second atom of this pair is atom number                    13 .

  Number of empty states per atom not set in control.in - providing a guess from actual geometry.
  | Total number of empty states used during s.c.f. cycle:       29
  If you use a very high smearing, use empty_states (per atom!) in control.in to increase this value.

  Structure-dependent array size parameters: 
  | Maximum number of distinct radial functions  :       21
  | Maximum number of basis functions            :      119
  | Number of Kohn-Sham states (occupied + empty):       53
------------------------------------------------------------

------------------------------------------------------------
          Preparing all fixed parts of the calculation.
------------------------------------------------------------
  Determining machine precision:
    2.225073858507201E-308
  Setting up grids for atomic and cluster calculations.

  Creating wave function, potential, and density for free atoms.

  Species: H

  List of occupied orbitals and eigenvalues:
    n    l              occ      energy [Ha]    energy [eV]
    1    0           1.0000        -0.237589        -6.4651


  Species: C

  List of occupied orbitals and eigenvalues:
    n    l              occ      energy [Ha]    energy [eV]
    1    0           2.0000       -10.038835      -273.1706
    2    0           2.0000        -0.502696       -13.6791
    2    1           2.0000        -0.191971        -5.2238


  Species: N

  List of occupied orbitals and eigenvalues:
    n    l              occ      energy [Ha]    energy [eV]
    1    0           2.0000       -14.128000      -384.4424
    2    0           2.0000        -0.681077       -18.5330
    2    1           3.0000        -0.259788        -7.0692


  Species: O

  List of occupied orbitals and eigenvalues:
    n    l              occ      energy [Ha]    energy [eV]
    1    0           2.0000       -18.898188      -514.2459
    2    0           2.0000        -0.878505       -23.9053
    2    1           4.0000        -0.331779        -9.0282

  Creating fixed part of basis set: Ionic, confined, hydrogenic.
 
  H                    hydrogenic:
 
  List of hydrogenic basis orbitals: 
    n    l      effective z      eigenvalue [eV]  inner max. [A]     outer max. [A]     outer radius [A]   
    2    0         2.100000       -14.9728           0.193243           1.317208           4.583499
    2    1         3.500000       -41.6669           0.602369           0.602369           3.723403
 
 
  C                    hydrogenic:
 
  List of hydrogenic basis orbitals: 
    n    l      effective z      eigenvalue [eV]  inner max. [A]     outer max. [A]     outer radius [A]   
    2    1         1.700000        -9.7616           1.230570           1.230570           4.607917
    3    2         6.000000       -54.4224           0.792453           0.792453           3.883070
    2    0         4.900000       -81.6679           0.082559           0.562749           3.078220
 
 
  N                    hydrogenic:
 
  List of hydrogenic basis orbitals: 
    n    l      effective z      eigenvalue [eV]  inner max. [A]     outer max. [A]     outer radius [A]   
    2    1         1.800000       -10.9749           1.177451           1.177451           4.573712
    3    2         6.800000       -69.9026           0.704619           0.704619           3.538137
    3    0         5.800000       -50.8545           0.067388           1.191934           4.250239
 
 
  O                    hydrogenic:
 
  List of hydrogenic basis orbitals: 
    n    l      effective z      eigenvalue [eV]  inner max. [A]     outer max. [A]     outer radius [A]   
    2    1         1.800000       -10.9749           1.164242           1.164242           4.578029
    3    2         7.600000       -87.3180           0.624125           0.624125           3.251020
    3    0         6.400000       -61.9207           0.061167           1.081902           4.001998
 

  Adding cutoff potential to free-atom effective potential.
  Creating atomic-like basis functions for current effective potential.

  Species H                   :

  List of atomic basis orbitals and eigenvalues:
    n    l      energy [Ha]    energy [eV]    outer radius [A]
    1    0        -0.237589        -6.4651       4.527807


  Species C                   :

  List of atomic basis orbitals and eigenvalues:
    n    l      energy [Ha]    energy [eV]    outer radius [A]
    1    0       -10.038835      -273.1706       1.934409
    2    0        -0.502696       -13.6791       4.496620
    2    1        -0.191971        -5.2238       4.551928


  Species N                   :

  List of atomic basis orbitals and eigenvalues:
    n    l      energy [Ha]    energy [eV]    outer radius [A]
    1    0       -14.128000      -384.4424       1.637919
    2    0        -0.681077       -18.5330       4.463241
    2    1        -0.259788        -7.0692       4.518138


  Species O                   :

  List of atomic basis orbitals and eigenvalues:
    n    l      energy [Ha]    energy [eV]    outer radius [A]
    1    0       -18.898188      -514.2459       1.415765
    2    0        -0.878505       -23.9053       4.413171
    2    1        -0.331779        -9.0282       4.522403

  Assembling full basis from fixed parts.
  | Species H :   atomic orbital   1 s accepted.
  | Species H :    hydro orbital   2 s accepted.
  | Species H :    hydro orbital   2 p accepted.
  | Species C :   atomic orbital   1 s accepted.
  | Species C :    hydro orbital   2 s accepted.
  | Species C :   atomic orbital   2 s accepted.
  | Species C :   atomic orbital   2 p accepted.
  | Species C :    hydro orbital   2 p accepted.
  | Species C :    hydro orbital   3 d accepted.
  | Species N :   atomic orbital   1 s accepted.
  | Species N :    hydro orbital   3 s accepted.
  | Species N :   atomic orbital   2 s accepted.
  | Species N :   atomic orbital   2 p accepted.
  | Species N :    hydro orbital   2 p accepted.
  | Species N :    hydro orbital   3 d accepted.
  | Species O :   atomic orbital   1 s accepted.
  | Species O :    hydro orbital   3 s accepted.
  | Species O :   atomic orbital   2 s accepted.
  | Species O :   atomic orbital   2 p accepted.
  | Species O :    hydro orbital   2 p accepted.
  | Species O :    hydro orbital   3 d accepted.
 
  Basis size parameters after reduction:
  | Total number of radial functions:       21
  | Total number of basis functions :      119
 
  Per-task memory consumption for arrays in subroutine allocate_ext:
  |           5.250512MB.
  Testing on-site integration grid accuracy.
  |  Species  Function  <phi|h_atom|phi> (log., in eV)  <phi|h_atom|phi> (rad., in eV)
           1        1                 -6.4663192853                 -6.4651273558
           1        2                 13.7111246313                 13.7170609718
           1        3                 25.2673269279                 25.2674696378
           2        4               -273.1705927641               -273.1705631568
           2        5                -10.7109323383                -10.7107120029
           2        6                 17.4381822266                 17.4352413244
           2        7                 -5.2255326521                 -5.2270484734
           2        8                  8.6835629259                  8.6603288385
           2        9                 27.4952418996                 27.4953360207
           3       10               -384.4424306495               -384.4423701208
           3       11                 12.5842251816                 12.5842222903
           3       12                -15.7264628251                -15.7264433455
           3       13                 -7.0696854293                 -7.0701769954
           3       14                  8.8090390882                  8.7901077751
           3       15                 35.9586762123                 35.9588528632
           4       16               -514.2458688638               -514.2457643834
           4       17                 15.1795651126                 15.1795290741
           4       18                -21.5359799773                -21.5360846186
           4       19                 -9.0283069236                 -9.0284644067
           4       20                  8.3027758564                  8.2834874195
           4       21                 45.8339351984                 45.8338762259

  Preparing densities etc. for the partition functions (integrals / Hartree potential).

  Preparations completed.
  max(cpu_time)          :      0.145 s.
  Wall clock time (cpu1) :      0.146 s.
------------------------------------------------------------

------------------------------------------------------------
          Begin self-consistency loop: Initialization.

          Date     :  20200710, Time     :  145538.100
------------------------------------------------------------

  Initializing index lists of integration centers etc. from given atomic structure:
  | Number of centers in hartree potential         :        13
  | Number of centers in hartree multipole         :        13
  | Number of centers in electron density summation:        13
  | Number of centers in basis integrals           :        13
  | Number of centers in integrals                 :        13
  | Number of centers in hamiltonian               :        13
  Partitioning the integration grid into batches with parallel hashing+maxmin method.
  | Number of batches:      956
  | Maximal batch size:     139
  | Minimal batch size:      66
  | Average batch size:      72.851
  | Standard deviation of batch sizes:      17.497

  Integration load balanced across     1 MPI tasks.
  Work distribution over tasks is as follows:
  Task     0 has      69646 integration points.
  Initializing partition tables, free-atom densities, potentials, etc. across the integration grid (initialize_grid_storage).
  | initialize_grid_storage: Actual outermost partition radius vs. multipole_radius_free
  | (-- VB: in principle, multipole_radius_free should be larger, hence this output)
  | Species        1: Confinement radius =              4.999999999999999 AA, multipole_radius_free =              5.054417573612229 AA.
  | Species        1: outer_partition_radius set to              5.054417573612229 AA .
  | Species        2: Confinement radius =              4.999999999999999 AA, multipole_radius_free =              5.019602836301480 AA.
  | Species        2: outer_partition_radius set to              5.019602836301480 AA .
  | Species        3: Confinement radius =              4.999999999999999 AA, multipole_radius_free =              5.043624274424571 AA.
  | Species        3: outer_partition_radius set to              5.043624274424571 AA .
  | Species        4: Confinement radius =              4.999999999999999 AA, multipole_radius_free =              5.048384829883283 AA.
  | Species        4: outer_partition_radius set to              5.048384829883283 AA .
  | Original list of interatomic distances with          13 x         13 entries is created.
  | Net number of integration points:    69646
  | of which are non-zero points    :    59650
  Renormalizing the initial density to the exact electron count on the 3D integration grid.
  | Initial density: Formal number of electrons (from input files) :      48.0000000000
  | Integrated number of electrons on 3D grid     :      47.9998743821
  | Charge integration error                      :      -0.0001256179
  | Normalization factor for density and gradient :       1.0000026170
  Obtaining max. number of non-zero basis functions in each batch (get_n_compute_maxes).
  | Maximal number of non-zero basis functions:      119 in task     0
  Selecting the method for density update.
  Loop over occupied states selected for charge density update.
  Allocating        0.050 MB for KS_eigenvector
  Integrating Hamiltonian matrix: batch-based integration.
  Time summed over all CPUs for integration: real work        0.490 s, elapsed        0.490 s
  Integrating overlap matrix.
  Time summed over all CPUs for integration: real work        0.211 s, elapsed        0.211 s

  Updating Kohn-Sham eigenvalues and eigenvectors using ELSI and the ELPA eigensolver.
  Overlap matrix is nonsingular
  | Lowest eigenvalue of overlap  :  0.51E-02
  | Highest eigenvalue of overlap :  0.61E+01
  Finished singularity check of overlap matrix
  | Time :     0.002 s
  Finished Cholesky decomposition
  | Time :     0.000 s
  Finished transformation to standard eigenproblem
  | Time :     0.000 s
  Starting LAPACK eigensolver
  Finished solving standard eigenproblem
  | Time :     0.002 s
  Finished back-transformation of eigenvectors
  | Time :     0.000 s

  Obtaining occupation numbers and chemical potential using ELSI.
  | Chemical potential (Fermi level):    -9.40014567eV
  Writing Kohn-Sham eigenvalues.

  State    Occupation    Eigenvalue [Ha]    Eigenvalue [eV]
      1       2.00000         -19.008029         -517.23479
      2       2.00000         -18.978371         -516.42774
      3       2.00000         -14.245789         -387.64763
      4       2.00000         -10.166602         -276.64733
      5       2.00000         -10.141236         -275.95708
      6       2.00000         -10.132099         -275.70843
      7       2.00000          -1.188754          -32.34764
      8       2.00000          -1.093243          -29.74866
      9       2.00000          -0.991148          -26.97051
     10       2.00000          -0.861612          -23.44566
     11       2.00000          -0.758576          -20.64192
     12       2.00000          -0.683310          -18.59382
     13       2.00000          -0.620609          -16.88764
     14       2.00000          -0.610104          -16.60178
     15       2.00000          -0.594058          -16.16513
     16       2.00000          -0.557316          -15.16534
     17       2.00000          -0.547156          -14.88888
     18       2.00000          -0.528600          -14.38393
     19       2.00000          -0.515302          -14.02209
     20       2.00000          -0.501324          -13.64172
     21       2.00000          -0.473696          -12.88993
     22       2.00000          -0.428895          -11.67081
     23       2.00000          -0.422210          -11.48891
     24       2.00000          -0.380806          -10.36227
     25       0.00000          -0.148432           -4.03904
     26       0.00000          -0.058105           -1.58112
     27       0.00000          -0.027457           -0.74715
     28       0.00000          -0.019356           -0.52669
     29       0.00000           0.001915            0.05210
     30       0.00000           0.010652            0.28985
     31       0.00000           0.020535            0.55879
     32       0.00000           0.028499            0.77549
     33       0.00000           0.042926            1.16807
     34       0.00000           0.065896            1.79312
     35       0.00000           0.083459            2.27104
     36       0.00000           0.133916            3.64404
     37       0.00000           0.148661            4.04527
     38       0.00000           0.195938            5.33175
     39       0.00000           0.213604            5.81246
     40       0.00000           0.225373            6.13271
     41       0.00000           0.264258            7.19084
     42       0.00000           0.276966            7.53662
     43       0.00000           0.285241            7.76181
     44       0.00000           0.311654            8.48055
     45       0.00000           0.338077            9.19954
     46       0.00000           0.350100            9.52669
     47       0.00000           0.368642           10.03125
     48       0.00000           0.403127           10.96965
     49       0.00000           0.440072           11.97496
     50       0.00000           0.477872           13.00355
     51       0.00000           0.499676           13.59687
     52       0.00000           0.510972           13.90427
     53       0.00000           0.572383           15.57533

  Highest occupied state (VBM) at    -10.36226784 eV
  | Occupation number:      2.00000000

  Lowest unoccupied state (CBM) at    -4.03903966 eV
  | Occupation number:      0.00000000

  Overall HOMO-LUMO gap:      6.32322818 eV.
  Calculating total energy contributions from superposition of free atom densities.

  Total energy components:
  | Sum of eigenvalues            :        -188.85769204 Ha       -5139.07927392 eV
  | XC energy correction          :         -41.78817817 Ha       -1137.11418386 eV
  | XC potential correction       :          53.71921164 Ha        1461.77412296 eV
  | Free-atom electrostatic energy:        -146.84932505 Ha       -3995.97344757 eV
  | Hartree energy correction     :           0.00000000 Ha           0.00000000 eV
  | vdW energy correction         :           0.00000000 Ha           0.00000000 eV
  | Entropy correction            :           0.00000000 Ha           0.00000000 eV
  | ---------------------------
  | Total energy                  :        -323.77598363 Ha       -8810.39278238 eV
  | Total energy, T -> 0          :        -323.77598363 Ha       -8810.39278238 eV  <-- do not rely on this value for anything but (periodic) metals
  | Electronic free energy        :        -323.77598363 Ha       -8810.39278238 eV

  Derived energy quantities:
  | Kinetic energy                :         320.48052910 Ha        8720.71890220 eV
  | Electrostatic energy          :        -602.46833456 Ha      -16393.99750072 eV
  | Energy correction for multipole
  | error in Hartree potential    :           0.00000000 Ha           0.00000000 eV
  | Sum of eigenvalues per atom                           :        -395.31379030 eV
  | Total energy (T->0) per atom                          :        -677.72252172 eV  <-- do not rely on this value for anything but (periodic) metals
  | Electronic free energy per atom                       :        -677.72252172 eV
  Initialize hartree_potential_storage
  Max. number of atoms included in rho_multipole:           13

  End scf initialization - timings             :  max(cpu_time)    wall_clock(cpu1)
  | Time for scf. initialization               :        1.143 s           1.145 s
  | Boundary condition initialization          :        0.000 s           0.000 s
  | Integration                                :        0.701 s           0.701 s
  | Solution of K.-S. eqns.                    :        0.004 s           0.004 s
  | Grid partitioning                          :        0.111 s           0.111 s
  | Preloading free-atom quantities on grid    :        0.002 s           0.002 s
  | Free-atom superposition energy             :        0.084 s           0.085 s
  | Total energy evaluation                    :        0.000 s           0.000 s

  Partial memory accounting:
  | Current value for overall tracked memory usage on task 0  :           0.165 MB
  | Peak value for overall tracked memory usage on task 0     :           0.678 MB after allocating wave
  | Largest tracked array allocation on task 0 so far         :           0.132 MB  when allocating H_times_psi
  Note:  These values currently only include a subset of arrays which are explicitly tracked.
  The "true" memory usage will be greater.
------------------------------------------------------------

------------------------------------------------------------
          Begin self-consistency iteration #    1

  Date     :  20200710, Time     :  145539.245
------------------------------------------------------------
  Evaluating new KS density.
  Integration grid: deviation in total charge (<rho> - N_e) =   4.973799E-14
  Pulay mixing of updated and previous charge densities.

  Evaluating partitioned Hartree potential by multipole expansion.
  | Analytical far-field extrapolation by fixed multipoles:
  | Hartree multipole sum: apparent total charge =  -0.238237E-03
  Summing up the Hartree potential.
  Time summed over all CPUs for potential: real work        0.280 s, elapsed        0.280 s
  | RMS charge density error from multipole expansion :   0.592923E-02

  Integrating Hamiltonian matrix: batch-based integration.
  Time summed over all CPUs for integration: real work        0.492 s, elapsed        0.492 s

  Updating Kohn-Sham eigenvalues and eigenvectors using ELSI and the ELPA eigensolver.
  Finished Cholesky decomposition
  | Time :     0.000 s
  Finished transformation to standard eigenproblem
  | Time :     0.000 s
  Starting LAPACK eigensolver
  Finished solving standard eigenproblem
  | Time :     0.001 s
  Finished back-transformation of eigenvectors
  | Time :     0.000 s

  Obtaining occupation numbers and chemical potential using ELSI.
  | Chemical potential (Fermi level):    -8.28196402eV
  Writing Kohn-Sham eigenvalues.

  State    Occupation    Eigenvalue [Ha]    Eigenvalue [eV]
      1       2.00000         -18.911372         -514.60463
      2       2.00000         -18.838749         -512.62845
      3       2.00000         -14.094544         -383.53205
      4       2.00000         -10.115797         -275.26484
      5       2.00000         -10.061678         -273.79218
      6       2.00000         -10.027555         -272.86366
      7       2.00000          -1.142367          -31.08539
      8       2.00000          -1.032509          -28.09600
      9       2.00000          -0.920312          -25.04296
     10       2.00000          -0.793474          -21.59153
     11       2.00000          -0.708171          -19.27031
     12       2.00000          -0.636593          -17.32259
     13       2.00000          -0.564322          -15.35599
     14       2.00000          -0.549062          -14.94075
     15       2.00000          -0.533826          -14.52616
     16       2.00000          -0.498749          -13.57166
     17       2.00000          -0.491048          -13.36211
     18       2.00000          -0.470684          -12.80797
     19       2.00000          -0.449749          -12.23830
     20       2.00000          -0.440969          -11.99939
     21       2.00000          -0.421886          -11.48010
     22       2.00000          -0.369033          -10.04190
     23       2.00000          -0.350289           -9.53184
     24       2.00000          -0.306609           -8.34325
     25       0.00000          -0.112165           -3.05218
     26       0.00000          -0.032695           -0.88967
     27       0.00000           0.000133            0.00363
     28       0.00000           0.016160            0.43973
     29       0.00000           0.029468            0.80186
     30       0.00000           0.054943            1.49507
     31       0.00000           0.065109            1.77171
     32       0.00000           0.069233            1.88393
     33       0.00000           0.084406            2.29681
     34       0.00000           0.104452            2.84230
     35       0.00000           0.125780            3.42264
     36       0.00000           0.162679            4.42672
     37       0.00000           0.171558            4.66832
     38       0.00000           0.222064            6.04267
     39       0.00000           0.243152            6.61649
     40       0.00000           0.262794            7.15100
     41       0.00000           0.301303            8.19888
     42       0.00000           0.311934            8.48816
     43       0.00000           0.324655            8.83430
     44       0.00000           0.352216            9.58428
     45       0.00000           0.374795           10.19869
     46       0.00000           0.384752           10.46963
     47       0.00000           0.405478           11.03362
     48       0.00000           0.439564           11.96115
     49       0.00000           0.480118           13.06467
     50       0.00000           0.509169           13.85520
     51       0.00000           0.536876           14.60913
     52       0.00000           0.552344           15.03004
     53       0.00000           0.610743           16.61915

  Highest occupied state (VBM) at     -8.34324766 eV
  | Occupation number:      2.00000000

  Lowest unoccupied state (CBM) at    -3.05217813 eV
  | Occupation number:      0.00000000

  Overall HOMO-LUMO gap:      5.29106953 eV.

  Total energy components:
  | Sum of eigenvalues            :        -185.45869952 Ha       -5046.58798147 eV
  | XC energy correction          :         -42.11642757 Ha       -1146.04630428 eV
  | XC potential correction       :          54.14615201 Ha        1473.39176150 eV
  | Free-atom electrostatic energy:        -146.84932505 Ha       -3995.97344757 eV
  | Hartree energy correction     :          -3.31784250 Ha         -90.28308794 eV
  | vdW energy correction         :           0.00000000 Ha           0.00000000 eV
  | Entropy correction            :          -0.00000000 Ha          -0.00000000 eV
  | ---------------------------
  | Total energy                  :        -323.59614263 Ha       -8805.49905975 eV
  | Total energy, T -> 0          :        -323.59614263 Ha       -8805.49905975 eV  <-- do not rely on this value for anything but (periodic) metals
  | Electronic free energy        :        -323.59614263 Ha       -8805.49905975 eV

  Derived energy quantities:
  | Kinetic energy                :         322.26674375 Ha        8769.32427561 eV
  | Electrostatic energy          :        -603.74645881 Ha      -16428.77703109 eV
  | Energy correction for multipole
  | error in Hartree potential    :           0.01210430 Ha           0.32937477 eV
  | Sum of eigenvalues per atom                           :        -388.19907550 eV
  | Total energy (T->0) per atom                          :        -677.34608152 eV  <-- do not rely on this value for anything but (periodic) metals
  | Electronic free energy per atom                       :        -677.34608152 eV

  Self-consistency convergence accuracy:
  | Change of charge density      :  0.5795E+00
  | Change of sum of eigenvalues  :  0.9249E+02 eV
  | Change of total energy        :  0.4894E+01 eV

  End self-consistency iteration #     1       :  max(cpu_time)    wall_clock(cpu1)
  | Time for this iteration                    :        1.180 s           1.181 s
  | Charge density update                      :        0.391 s           0.391 s
  | Density mixing                             :        0.005 s           0.006 s
  | Hartree multipole update                   :        0.009 s           0.008 s
  | Hartree multipole summation                :        0.281 s           0.281 s
  | Integration                                :        0.492 s           0.493 s
  | Solution of K.-S. eqns.                    :        0.002 s           0.002 s
  | Total energy evaluation                    :        0.000 s           0.000 s

  Partial memory accounting:
  | Current value for overall tracked memory usage on task 0  :           0.165 MB
  | Peak value for overall tracked memory usage on task 0     :           0.695 MB after allocating gradient_basis_wave
  | Largest tracked array allocation on task 0 so far         :           0.397 MB  when allocating gradient_basis_wave
  Note:  These values currently only include a subset of arrays which are explicitly tracked.
  The "true" memory usage will be greater.
------------------------------------------------------------

------------------------------------------------------------
          Begin self-consistency iteration #    2

  Date     :  20200710, Time     :  145540.427
------------------------------------------------------------
  Evaluating new KS density.
  Integration grid: deviation in total charge (<rho> - N_e) =  -1.421085E-14
  Pulay mixing of updated and previous charge densities.

  Evaluating partitioned Hartree potential by multipole expansion.
  | Analytical far-field extrapolation by fixed multipoles:
  | Hartree multipole sum: apparent total charge =  -0.383957E-03
  Summing up the Hartree potential.
  Time summed over all CPUs for potential: real work        0.280 s, elapsed        0.280 s
  | RMS charge density error from multipole expansion :   0.141993E-01

  Integrating Hamiltonian matrix: batch-based integration.
  Time summed over all CPUs for integration: real work        0.491 s, elapsed        0.491 s

  Updating Kohn-Sham eigenvalues and eigenvectors using ELSI and the ELPA eigensolver.
  Finished Cholesky decomposition
  | Time :     0.000 s
  Finished transformation to standard eigenproblem
  | Time :     0.000 s
  Starting LAPACK eigensolver
  Finished solving standard eigenproblem
  | Time :     0.001 s
  Finished back-transformation of eigenvectors
  | Time :     0.000 s

  Obtaining occupation numbers and chemical potential using ELSI.
  | Chemical potential (Fermi level):    -2.81864149eV
  Highest occupied state (VBM) at     -6.28715861 eV
  | Occupation number:      2.00000000

  Lowest unoccupied state (CBM) at    -1.76722210 eV
  | Occupation number:      0.00000000

  Overall HOMO-LUMO gap:      4.51993651 eV.

  Checking to see if s.c.f. parameters should be adjusted.

  Total energy components:
  | Sum of eigenvalues            :        -181.83583859 Ha       -4948.00491966 eV
  | XC energy correction          :         -42.48155858 Ha       -1155.98202481 eV
  | XC potential correction       :          54.61955531 Ha        1486.27372080 eV
  | Free-atom electrostatic energy:        -146.84932505 Ha       -3995.97344757 eV
  | Hartree energy correction     :          -6.97149496 Ha        -189.70402978 eV
  | vdW energy correction         :           0.00000000 Ha           0.00000000 eV
  | Entropy correction            :           0.00000000 Ha           0.00000000 eV
  | ---------------------------
  | Total energy                  :        -323.51866187 Ha       -8803.39070101 eV
  | Total energy, T -> 0          :        -323.51866187 Ha       -8803.39070101 eV  <-- do not rely on this value for anything but (periodic) metals
  | Electronic free energy        :        -323.51866187 Ha       -8803.39070101 eV

  Derived energy quantities:
  | Kinetic energy                :         323.61024052 Ha        8805.88268286 eV
  | Electrostatic energy          :        -604.64734380 Ha      -16453.29135906 eV
  | Energy correction for multipole
  | error in Hartree potential    :           0.02704384 Ha           0.73590028 eV
  | Sum of eigenvalues per atom                           :        -380.61576305 eV
  | Total energy (T->0) per atom                          :        -677.18390008 eV  <-- do not rely on this value for anything but (periodic) metals
  | Electronic free energy per atom                       :        -677.18390008 eV

  Self-consistency convergence accuracy:
  | Change of charge density      :  0.3621E+00
  | Change of sum of eigenvalues  :  0.9858E+02 eV
  | Change of total energy        :  0.2108E+01 eV

  End self-consistency iteration #     2       :  max(cpu_time)    wall_clock(cpu1)
  | Time for this iteration                    :        1.173 s           1.180 s
  | Charge density update                      :        0.383 s           0.390 s
  | Density mixing                             :        0.007 s           0.007 s
  | Hartree multipole update                   :        0.009 s           0.009 s
  | Hartree multipole summation                :        0.280 s           0.280 s
  | Integration                                :        0.492 s           0.492 s
  | Solution of K.-S. eqns.                    :        0.002 s           0.002 s
  | Total energy evaluation                    :        0.000 s           0.000 s

  Partial memory accounting:
  | Current value for overall tracked memory usage on task 0  :           0.166 MB
  | Peak value for overall tracked memory usage on task 0     :           0.695 MB after allocating gradient_basis_wave
  | Largest tracked array allocation on task 0 so far         :           0.397 MB  when allocating gradient_basis_wave
  Note:  These values currently only include a subset of arrays which are explicitly tracked.
  The "true" memory usage will be greater.
------------------------------------------------------------

------------------------------------------------------------
          Begin self-consistency iteration #    3

  Date     :  20200710, Time     :  145541.608
------------------------------------------------------------
  Evaluating new KS density.
  Integration grid: deviation in total charge (<rho> - N_e) =  -2.842171E-14
  Pulay mixing of updated and previous charge densities.

  Evaluating partitioned Hartree potential by multipole expansion.
  | Analytical far-field extrapolation by fixed multipoles:
  | Hartree multipole sum: apparent total charge =  -0.487496E-03
  Summing up the Hartree potential.
  Time summed over all CPUs for potential: real work        0.280 s, elapsed        0.280 s
  | RMS charge density error from multipole expansion :   0.225490E-01

  Integrating Hamiltonian matrix: batch-based integration.
  Time summed over all CPUs for integration: real work        0.491 s, elapsed        0.491 s

  Updating Kohn-Sham eigenvalues and eigenvectors using ELSI and the ELPA eigensolver.
  Finished Cholesky decomposition
  | Time :     0.000 s
  Finished transformation to standard eigenproblem
  | Time :     0.000 s
  Starting LAPACK eigensolver
  Finished solving standard eigenproblem
  | Time :     0.002 s
  Finished back-transformation of eigenvectors
  | Time :     0.000 s

  Obtaining occupation numbers and chemical potential using ELSI.
  | Chemical potential (Fermi level):    -2.14155927eV
  Highest occupied state (VBM) at     -5.64131066 eV
  | Occupation number:      2.00000000

  Lowest unoccupied state (CBM) at    -1.04225127 eV
  | Occupation number:      0.00000000

  Overall HOMO-LUMO gap:      4.59905939 eV.

  Total energy components:
  | Sum of eigenvalues            :        -180.54491953 Ha       -4912.87722495 eV
  | XC energy correction          :         -42.63218282 Ha       -1160.08071875 eV
  | XC potential correction       :          54.81159791 Ha        1491.49946591 eV
  | Free-atom electrostatic energy:        -146.84932505 Ha       -3995.97344757 eV
  | Hartree energy correction     :          -8.29195679 Ha        -225.63562435 eV
  | vdW energy correction         :           0.00000000 Ha           0.00000000 eV
  | Entropy correction            :           0.00000000 Ha           0.00000000 eV
  | ---------------------------
  | Total energy                  :        -323.50678628 Ha       -8803.06754970 eV
  | Total energy, T -> 0          :        -323.50678628 Ha       -8803.06754970 eV  <-- do not rely on this value for anything but (periodic) metals
  | Electronic free energy        :        -323.50678628 Ha       -8803.06754970 eV

  Derived energy quantities:
  | Kinetic energy                :         323.16332790 Ha        8793.72157181 eV
  | Electrostatic energy          :        -604.03793136 Ha      -16436.70840276 eV
  | Energy correction for multipole
  | error in Hartree potential    :           0.03874615 Ha           1.05433628 eV
  | Sum of eigenvalues per atom                           :        -377.91363269 eV
  | Total energy (T->0) per atom                          :        -677.15904228 eV  <-- do not rely on this value for anything but (periodic) metals
  | Electronic free energy per atom                       :        -677.15904228 eV

  Self-consistency convergence accuracy:
  | Change of charge density      :  0.2006E+00
  | Change of sum of eigenvalues  :  0.3513E+02 eV
  | Change of total energy        :  0.3232E+00 eV

  End self-consistency iteration #     3       :  max(cpu_time)    wall_clock(cpu1)
  | Time for this iteration                    :        1.174 s           1.174 s
  | Charge density update                      :        0.383 s           0.383 s
  | Density mixing                             :        0.008 s           0.009 s
  | Hartree multipole update                   :        0.009 s           0.009 s
  | Hartree multipole summation                :        0.280 s           0.280 s
  | Integration                                :        0.491 s           0.491 s
  | Solution of K.-S. eqns.                    :        0.002 s           0.002 s
  | Total energy evaluation                    :        0.000 s           0.000 s

  Partial memory accounting:
  | Current value for overall tracked memory usage on task 0  :           0.166 MB
  | Peak value for overall tracked memory usage on task 0     :           0.695 MB after allocating gradient_basis_wave
  | Largest tracked array allocation on task 0 so far         :           0.397 MB  when allocating gradient_basis_wave
  Note:  These values currently only include a subset of arrays which are explicitly tracked.
  The "true" memory usage will be greater.
------------------------------------------------------------

------------------------------------------------------------
          Begin self-consistency iteration #    4

  Date     :  20200710, Time     :  145542.783
------------------------------------------------------------
  Evaluating new KS density.
  Integration grid: deviation in total charge (<rho> - N_e) =  -2.131628E-14
  Pulay mixing of updated and previous charge densities.

  Evaluating partitioned Hartree potential by multipole expansion.
  | Analytical far-field extrapolation by fixed multipoles:
  | Hartree multipole sum: apparent total charge =  -0.520257E-03
  Summing up the Hartree potential.
  Time summed over all CPUs for potential: real work        0.280 s, elapsed        0.280 s
  | RMS charge density error from multipole expansion :   0.258780E-01

  Integrating Hamiltonian matrix: batch-based integration.
  Time summed over all CPUs for integration: real work        0.491 s, elapsed        0.491 s

  Updating Kohn-Sham eigenvalues and eigenvectors using ELSI and the ELPA eigensolver.
  Finished Cholesky decomposition
  | Time :     0.000 s
  Finished transformation to standard eigenproblem
  | Time :     0.000 s
  Starting LAPACK eigensolver
  Finished solving standard eigenproblem
  | Time :     0.002 s
  Finished back-transformation of eigenvectors
  | Time :     0.000 s

  Obtaining occupation numbers and chemical potential using ELSI.
  | Chemical potential (Fermi level):    -2.04388185eV
  Highest occupied state (VBM) at     -5.45054867 eV
  | Occupation number:      2.00000000

  Lowest unoccupied state (CBM) at    -0.97457418 eV
  | Occupation number:      0.00000000

  Overall HOMO-LUMO gap:      4.47597450 eV.

  Total energy components:
  | Sum of eigenvalues            :        -180.40341947 Ha       -4909.02681224 eV
  | XC energy correction          :         -42.66839916 Ha       -1161.06621549 eV
  | XC potential correction       :          54.85724645 Ha        1492.74162583 eV
  | Free-atom electrostatic energy:        -146.84932505 Ha       -3995.97344757 eV
  | Hartree energy correction     :          -8.44213069 Ha        -229.72206414 eV
  | vdW energy correction         :           0.00000000 Ha           0.00000000 eV
  | Entropy correction            :           0.00000000 Ha           0.00000000 eV
  | ---------------------------
  | Total energy                  :        -323.50602791 Ha       -8803.04691361 eV
  | Total energy, T -> 0          :        -323.50602791 Ha       -8803.04691361 eV  <-- do not rely on this value for anything but (periodic) metals
  | Electronic free energy        :        -323.50602791 Ha       -8803.04691361 eV

  Derived energy quantities:
  | Kinetic energy                :         322.79930096 Ha        8783.81589468 eV
  | Electrostatic energy          :        -603.63692971 Ha      -16425.79659279 eV
  | Energy correction for multipole
  | error in Hartree potential    :           0.04293577 Ha           1.16834162 eV
  | Sum of eigenvalues per atom                           :        -377.61744710 eV
  | Total energy (T->0) per atom                          :        -677.15745489 eV  <-- do not rely on this value for anything but (periodic) metals
  | Electronic free energy per atom                       :        -677.15745489 eV

  Self-consistency convergence accuracy:
  | Change of charge density      :  0.6063E-01
  | Change of sum of eigenvalues  :  0.3850E+01 eV
  | Change of total energy        :  0.2064E-01 eV

  End self-consistency iteration #     4       :  max(cpu_time)    wall_clock(cpu1)
  | Time for this iteration                    :        1.175 s           1.175 s
  | Charge density update                      :        0.383 s           0.383 s
  | Density mixing                             :        0.009 s           0.010 s
  | Hartree multipole update                   :        0.009 s           0.009 s
  | Hartree multipole summation                :        0.280 s           0.280 s
  | Integration                                :        0.491 s           0.491 s
  | Solution of K.-S. eqns.                    :        0.002 s           0.002 s
  | Total energy evaluation                    :        0.000 s           0.000 s

  Partial memory accounting:
  | Current value for overall tracked memory usage on task 0  :           0.166 MB
  | Peak value for overall tracked memory usage on task 0     :           0.696 MB after allocating gradient_basis_wave
  | Largest tracked array allocation on task 0 so far         :           0.397 MB  when allocating gradient_basis_wave
  Note:  These values currently only include a subset of arrays which are explicitly tracked.
  The "true" memory usage will be greater.
------------------------------------------------------------

------------------------------------------------------------
          Begin self-consistency iteration #    5

  Date     :  20200710, Time     :  145543.959
------------------------------------------------------------
  Evaluating new KS density.
  Integration grid: deviation in total charge (<rho> - N_e) =   2.842171E-14
  Pulay mixing of updated and previous charge densities.

  Evaluating partitioned Hartree potential by multipole expansion.
  | Analytical far-field extrapolation by fixed multipoles:
  | Hartree multipole sum: apparent total charge =  -0.514317E-03
  Summing up the Hartree potential.
  Time summed over all CPUs for potential: real work        0.280 s, elapsed        0.280 s
  | RMS charge density error from multipole expansion :   0.256123E-01

  Integrating Hamiltonian matrix: batch-based integration.
  Time summed over all CPUs for integration: real work        0.491 s, elapsed        0.491 s

  Updating Kohn-Sham eigenvalues and eigenvectors using ELSI and the ELPA eigensolver.
  Finished Cholesky decomposition
  | Time :     0.000 s
  Finished transformation to standard eigenproblem
  | Time :     0.000 s
  Starting LAPACK eigensolver
  Finished solving standard eigenproblem
  | Time :     0.002 s
  Finished back-transformation of eigenvectors
  | Time :     0.000 s

  Obtaining occupation numbers and chemical potential using ELSI.
  | Chemical potential (Fermi level):    -2.09870946eV
  Highest occupied state (VBM) at     -5.53388148 eV
  | Occupation number:      2.00000000

  Lowest unoccupied state (CBM) at    -1.04804368 eV
  | Occupation number:      0.00000000

  Overall HOMO-LUMO gap:      4.48583780 eV.

  Total energy components:
  | Sum of eigenvalues            :        -180.56718740 Ha       -4913.48316445 eV
  | XC energy correction          :         -42.64781959 Ha       -1160.50621706 eV
  | XC potential correction       :          54.83056837 Ha        1492.01567838 eV
  | Free-atom electrostatic energy:        -146.84932505 Ha       -3995.97344757 eV
  | Hartree energy correction     :          -8.27196370 Ha        -225.09158478 eV
  | vdW energy correction         :           0.00000000 Ha           0.00000000 eV
  | Entropy correction            :           0.00000000 Ha           0.00000000 eV
  | ---------------------------
  | Total energy                  :        -323.50572737 Ha       -8803.03873546 eV
  | Total energy, T -> 0          :        -323.50572737 Ha       -8803.03873546 eV  <-- do not rely on this value for anything but (periodic) metals
  | Electronic free energy        :        -323.50572737 Ha       -8803.03873546 eV

  Derived energy quantities:
  | Kinetic energy                :         322.71368560 Ha        8781.48618220 eV
  | Electrostatic energy          :        -603.57159337 Ha      -16424.01870060 eV
  | Energy correction for multipole
  | error in Hartree potential    :           0.04233508 Ha           1.15199623 eV
  | Sum of eigenvalues per atom                           :        -377.96024342 eV
  | Total energy (T->0) per atom                          :        -677.15682580 eV  <-- do not rely on this value for anything but (periodic) metals
  | Electronic free energy per atom                       :        -677.15682580 eV

  Self-consistency convergence accuracy:
  | Change of charge density      :  0.2121E-01
  | Change of sum of eigenvalues  : -0.4456E+01 eV
  | Change of total energy        :  0.8178E-02 eV

  End self-consistency iteration #     5       :  max(cpu_time)    wall_clock(cpu1)
  | Time for this iteration                    :        1.177 s           1.177 s
  | Charge density update                      :        0.383 s           0.384 s
  | Density mixing                             :        0.011 s           0.010 s
  | Hartree multipole update                   :        0.009 s           0.009 s
  | Hartree multipole summation                :        0.280 s           0.281 s
  | Integration                                :        0.491 s           0.491 s
  | Solution of K.-S. eqns.                    :        0.002 s           0.002 s
  | Total energy evaluation                    :        0.000 s           0.000 s

  Partial memory accounting:
  | Current value for overall tracked memory usage on task 0  :           0.166 MB
  | Peak value for overall tracked memory usage on task 0     :           0.696 MB after allocating gradient_basis_wave
  | Largest tracked array allocation on task 0 so far         :           0.397 MB  when allocating gradient_basis_wave
  Note:  These values currently only include a subset of arrays which are explicitly tracked.
  The "true" memory usage will be greater.
------------------------------------------------------------

------------------------------------------------------------
          Begin self-consistency iteration #    6

  Date     :  20200710, Time     :  145545.137
------------------------------------------------------------
  Evaluating new KS density.
  Integration grid: deviation in total charge (<rho> - N_e) =  -7.105427E-15
  Pulay mixing of updated and previous charge densities.

  Evaluating partitioned Hartree potential by multipole expansion.
  | Analytical far-field extrapolation by fixed multipoles:
  | Hartree multipole sum: apparent total charge =  -0.516041E-03
  Summing up the Hartree potential.
  Time summed over all CPUs for potential: real work        0.280 s, elapsed        0.280 s
  | RMS charge density error from multipole expansion :   0.259453E-01

  Integrating Hamiltonian matrix: batch-based integration.
  Time summed over all CPUs for integration: real work        0.491 s, elapsed        0.491 s

  Updating Kohn-Sham eigenvalues and eigenvectors using ELSI and the ELPA eigensolver.
  Finished Cholesky decomposition
  | Time :     0.000 s
  Finished transformation to standard eigenproblem
  | Time :     0.000 s
  Starting LAPACK eigensolver
  Finished solving standard eigenproblem
  | Time :     0.002 s
  Finished back-transformation of eigenvectors
  | Time :     0.000 s

  Obtaining occupation numbers and chemical potential using ELSI.
  | Chemical potential (Fermi level):    -2.11309989eV
  Highest occupied state (VBM) at     -5.52756964 eV
  | Occupation number:      2.00000000

  Lowest unoccupied state (CBM) at    -1.08330991 eV
  | Occupation number:      0.00000000

  Overall HOMO-LUMO gap:      4.44425973 eV.

  Total energy components:
  | Sum of eigenvalues            :        -180.61432561 Ha       -4914.76586030 eV
  | XC energy correction          :         -42.64092321 Ha       -1160.31855698 eV
  | XC potential correction       :          54.82161370 Ha        1491.77200933 eV
  | Free-atom electrostatic energy:        -146.84932505 Ha       -3995.97344757 eV
  | Hartree energy correction     :          -8.22269580 Ha        -223.75093703 eV
  | vdW energy correction         :           0.00000000 Ha           0.00000000 eV
  | Entropy correction            :           0.00000000 Ha           0.00000000 eV
  | ---------------------------
  | Total energy                  :        -323.50565597 Ha       -8803.03679254 eV
  | Total energy, T -> 0          :        -323.50565597 Ha       -8803.03679254 eV  <-- do not rely on this value for anything but (periodic) metals
  | Electronic free energy        :        -323.50565597 Ha       -8803.03679254 eV

  Derived energy quantities:
  | Kinetic energy                :         322.61475468 Ha        8778.79413498 eV
  | Electrostatic energy          :        -603.47948744 Ha      -16421.51237054 eV
  | Energy correction for multipole
  | error in Hartree potential    :           0.04252501 Ha           1.15716441 eV
  | Sum of eigenvalues per atom                           :        -378.05891233 eV
  | Total energy (T->0) per atom                          :        -677.15667635 eV  <-- do not rely on this value for anything but (periodic) metals
  | Electronic free energy per atom                       :        -677.15667635 eV

  Self-consistency convergence accuracy:
  | Change of charge density      :  0.1077E-01
  | Change of sum of eigenvalues  : -0.1283E+01 eV
  | Change of total energy        :  0.1943E-02 eV

  End self-consistency iteration #     6       :  max(cpu_time)    wall_clock(cpu1)
  | Time for this iteration                    :        1.177 s           1.178 s
  | Charge density update                      :        0.383 s           0.383 s
  | Density mixing                             :        0.012 s           0.012 s
  | Hartree multipole update                   :        0.009 s           0.009 s
  | Hartree multipole summation                :        0.280 s           0.280 s
  | Integration                                :        0.491 s           0.492 s
  | Solution of K.-S. eqns.                    :        0.002 s           0.002 s
  | Total energy evaluation                    :        0.000 s           0.000 s

  Partial memory accounting:
  | Current value for overall tracked memory usage on task 0  :           0.166 MB
  | Peak value for overall tracked memory usage on task 0     :           0.696 MB after allocating gradient_basis_wave
  | Largest tracked array allocation on task 0 so far         :           0.397 MB  when allocating gradient_basis_wave
  Note:  These values currently only include a subset of arrays which are explicitly tracked.
  The "true" memory usage will be greater.
------------------------------------------------------------

------------------------------------------------------------
          Begin self-consistency iteration #    7

  Date     :  20200710, Time     :  145546.316
------------------------------------------------------------
  Evaluating new KS density.
  Integration grid: deviation in total charge (<rho> - N_e) =  -4.263256E-14
  Pulay mixing of updated and previous charge densities.

  Evaluating partitioned Hartree potential by multipole expansion.
  | Analytical far-field extrapolation by fixed multipoles:
  | Hartree multipole sum: apparent total charge =  -0.517580E-03
  Summing up the Hartree potential.
  Time summed over all CPUs for potential: real work        0.280 s, elapsed        0.280 s
  | RMS charge density error from multipole expansion :   0.261092E-01

  Integrating Hamiltonian matrix: batch-based integration.
  Time summed over all CPUs for integration: real work        0.491 s, elapsed        0.491 s

  Updating Kohn-Sham eigenvalues and eigenvectors using ELSI and the ELPA eigensolver.
  Finished Cholesky decomposition
  | Time :     0.000 s
  Finished transformation to standard eigenproblem
  | Time :     0.000 s
  Starting LAPACK eigensolver
  Finished solving standard eigenproblem
  | Time :     0.001 s
  Finished back-transformation of eigenvectors
  | Time :     0.000 s

[...]
  |   Hirshfeld dipole moment :      0.06515125
  |   Hirshfeld second moments:      0.00719407      -0.01514510      -0.01437491
  |                                 -0.01514510      -0.00915267       0.00801817
  |                                 -0.01437491       0.00801817      -0.02188703
  ----------------------------------------------------------------------
  | Atom    12: O
  |   Hirshfeld charge        :     -0.13756977
  |   Free atom volume        :     23.61338643
  |   Hirshfeld volume        :     20.59182349
  |   Hirshfeld dipole vector :      0.01088027       0.00446895       0.03547722
  |   Hirshfeld dipole moment :      0.03737626
  |   Hirshfeld second moments:      0.06431960       0.00934170      -0.01348471
  |                                  0.00934170       0.09372707      -0.01795630
  |                                 -0.01348471      -0.01795630       0.04119689
  ----------------------------------------------------------------------
  | Atom    13: H
  |   Hirshfeld charge        :      0.17034730
  |   Free atom volume        :      9.95071624
  |   Hirshfeld volume        :      6.40535903
  |   Hirshfeld dipole vector :     -0.03488326      -0.09138564       0.05426460
  |   Hirshfeld dipole moment :      0.11186074
  |   Hirshfeld second moments:      0.11491449       0.00058060      -0.01467436
  |                                  0.00058060       0.12256565      -0.00087097
  |                                 -0.01467436      -0.00087097       0.08169654
  ----------------------------------------------------------------------


  Total energy components:
  | Sum of eigenvalues            :        -180.60122211 Ha       -4914.40929596 eV
  | XC energy correction          :         -42.63904441 Ha       -1160.26743228 eV
  | XC potential correction       :          54.81926094 Ha        1491.70798743 eV
  | Free-atom electrostatic energy:        -146.84932505 Ha       -3995.97344757 eV
  | Hartree energy correction     :          -8.23530493 Ha        -224.09404892 eV
  | vdW energy correction         :          -0.00324015 Ha          -0.08816888 eV
  | Entropy correction            :           0.00000000 Ha           0.00000000 eV
  | ---------------------------
  | Total energy                  :        -323.50887571 Ha       -8803.12440619 eV
  | Total energy, T -> 0          :        -323.50887571 Ha       -8803.12440619 eV  <-- do not rely on this value for anything but (periodic) metals
  | Electronic free energy        :        -323.50887571 Ha       -8803.12440619 eV

  Derived energy quantities:
  | Kinetic energy                :         322.57668737 Ha        8777.75827085 eV
  | Electrostatic energy          :        -603.44327852 Ha      -16420.52707588 eV
  | Energy correction for multipole
  | error in Hartree potential    :           0.04264208 Ha           1.16034992 eV
  | Sum of eigenvalues per atom                           :        -378.03148430 eV
  | Total energy (T->0) per atom                          :        -677.16341586 eV  <-- do not rely on this value for anything but (periodic) metals
  | Electronic free energy per atom                       :        -677.16341586 eV

  atomic forces [eV/Ang]:
  -----------------------
  atom #    1
   Hellmann-Feynman              :  0.676317E-01 -0.212861E+00  0.515817E+00
   Ionic forces                  :  0.000000E+00  0.000000E+00  0.000000E+00
   Multipole                     :  0.106381E+00  0.230241E+00 -0.245526E+00
   Pulay + GGA                   : -0.914487E+00 -0.158971E+00 -0.102667E+01
   Van der Waals                 :  0.167301E-02  0.698339E-03 -0.138365E-02
   ----------------------------------------------------------------
   Total forces(   1)            : -0.738802E+00 -0.140893E+00 -0.757766E+00
  atom #    2
   Hellmann-Feynman              :  0.216567E+00  0.219474E-01 -0.782508E-01
   Ionic forces                  :  0.000000E+00  0.000000E+00  0.000000E+00
   Multipole                     :  0.191520E+00  0.169154E-01  0.471591E-02
   Pulay + GGA                   : -0.137477E+00  0.243729E-01  0.364443E-01
   Van der Waals                 :  0.370203E-02 -0.443120E-02 -0.632614E-02
   ----------------------------------------------------------------
   Total forces(   2)            :  0.274313E+00  0.588045E-01 -0.434167E-01
  atom #    3
   Hellmann-Feynman              : -0.571362E+00  0.109968E+02 -0.257081E+01
   Ionic forces                  :  0.000000E+00  0.000000E+00  0.000000E+00
   Multipole                     : -0.214860E+00  0.287845E+00 -0.930900E+00
   Pulay + GGA                   :  0.144210E+01 -0.107337E+02  0.410117E+01
   Van der Waals                 :  0.290591E-02 -0.751244E-02 -0.651440E-02
   ----------------------------------------------------------------
   Total forces(   3)            :  0.658782E+00  0.543453E+00  0.592942E+00
  atom #    4
   Hellmann-Feynman              : -0.200954E+00 -0.312149E+00 -0.877762E-01
   Ionic forces                  :  0.000000E+00  0.000000E+00  0.000000E+00
   Multipole                     :  0.313421E-01 -0.531577E-01 -0.104213E+00
   Pulay + GGA                   : -0.128126E+00  0.173124E+00  0.880278E-01
   Van der Waals                 : -0.805595E-03  0.502144E-02 -0.277990E-02
   ----------------------------------------------------------------
   Total forces(   4)            : -0.298543E+00 -0.187162E+00 -0.106741E+00
  atom #    5
   Hellmann-Feynman              : -0.113396E+00 -0.222913E+00 -0.192316E+00
   Ionic forces                  :  0.000000E+00  0.000000E+00  0.000000E+00
   Multipole                     : -0.721473E-01 -0.635046E-01 -0.594075E-01
   Pulay + GGA                   :  0.204110E+00  0.145836E+00  0.111624E-02
   Van der Waals                 : -0.448255E-03 -0.205697E-02 -0.254806E-02
   ----------------------------------------------------------------
   Total forces(   5)            :  0.181186E-01 -0.142638E+00 -0.253155E+00
  atom #    6
   Hellmann-Feynman              :  0.174506E+00 -0.419378E+00  0.487036E+00
   Ionic forces                  :  0.000000E+00  0.000000E+00  0.000000E+00
   Multipole                     : -0.120078E+00  0.672627E+00  0.247951E+00
   Pulay + GGA                   :  0.102256E+00 -0.638493E+00 -0.558215E+00
   Van der Waals                 : -0.177669E-03  0.802004E-02 -0.930016E-03
   ----------------------------------------------------------------
   Total forces(   6)            :  0.156505E+00 -0.377224E+00  0.175842E+00
  atom #    7
   Hellmann-Feynman              : -0.224002E+00 -0.412276E-01 -0.392338E-01
   Ionic forces                  :  0.000000E+00  0.000000E+00  0.000000E+00
   Multipole                     : -0.118248E+00  0.494894E-01  0.257563E-01
   Pulay + GGA                   :  0.116628E+00  0.197103E-01 -0.275570E-03
   Van der Waals                 : -0.200269E-02  0.237178E-02  0.451125E-02
   ----------------------------------------------------------------
   Total forces(   7)            : -0.227625E+00  0.303439E-01 -0.924185E-02
  atom #    8
   Hellmann-Feynman              :  0.358816E-01 -0.575818E-01  0.175262E+00
   Ionic forces                  :  0.000000E+00  0.000000E+00  0.000000E+00
   Multipole                     :  0.182876E-01  0.659091E-01  0.122881E+00
   Pulay + GGA                   : -0.411737E-01 -0.341558E-01 -0.858494E-01
   Van der Waals                 : -0.277249E-02  0.113568E-01  0.163308E-02
   ----------------------------------------------------------------
   Total forces(   8)            :  0.102230E-01 -0.144718E-01  0.213927E+00
  atom #    9
   Hellmann-Feynman              :  0.944998E-01 -0.142398E-01 -0.199733E+00
   Ionic forces                  :  0.000000E+00  0.000000E+00  0.000000E+00
   Multipole                     :  0.169335E-01  0.132780E+00 -0.829627E-02
   Pulay + GGA                   : -0.553350E-01 -0.109779E+00  0.188904E-01
   Van der Waals                 : -0.252757E-02  0.233249E-02  0.348818E-02
   ----------------------------------------------------------------
   Total forces(   9)            :  0.535707E-01  0.110940E-01 -0.185651E+00
  atom #   10
   Hellmann-Feynman              :  0.309536E+01  0.556103E+01  0.631233E+00
   Ionic forces                  :  0.000000E+00  0.000000E+00  0.000000E+00
   Multipole                     : -0.421430E-01 -0.126238E+00  0.182257E+00
   Pulay + GGA                   : -0.172403E+01 -0.322824E+01 -0.211179E+00
   Van der Waals                 :  0.239430E-02 -0.153625E-01  0.830033E-02
   ----------------------------------------------------------------
   Total forces(  10)            :  0.133158E+01  0.219119E+01  0.610611E+00
  atom #   11
   Hellmann-Feynman              :  0.411259E+01 -0.250193E+01  0.143609E+02
   Ionic forces                  :  0.000000E+00  0.000000E+00  0.000000E+00
   Multipole                     :  0.149986E+00 -0.478496E+00  0.798543E+00
   Pulay + GGA                   : -0.346960E+01  0.327861E+01 -0.134314E+02
   Van der Waals                 : -0.365014E-02 -0.117579E-01  0.831522E-03
   ----------------------------------------------------------------
   Total forces(  11)            :  0.789319E+00  0.286427E+00  0.172887E+01
  atom #   12
   Hellmann-Feynman              : -0.525738E+01  0.542196E+00 -0.153328E+02
   Ionic forces                  :  0.000000E+00  0.000000E+00  0.000000E+00
   Multipole                     : -0.860926E+00 -0.103316E+01 -0.845017E+00
   Pulay + GGA                   :  0.449068E+01 -0.906985E+00  0.141617E+02
   Van der Waals                 :  0.264389E-03  0.388327E-02  0.619759E-02
   ----------------------------------------------------------------
   Total forces(  12)            : -0.162736E+01 -0.139406E+01 -0.200997E+01
  atom #   13
   Hellmann-Feynman              : -0.474673E+00 -0.110114E+01  0.181825E+00
   Ionic forces                  :  0.000000E+00  0.000000E+00  0.000000E+00
   Multipole                     :  0.238835E-02 -0.377702E-01  0.895573E-01
   Pulay + GGA                   :  0.692035E-01  0.261537E+00 -0.223329E+00
   Van der Waals                 :  0.144477E-02  0.743690E-02 -0.447980E-02
   ----------------------------------------------------------------
   Total forces(  13)            : -0.401636E+00 -0.869932E+00  0.435734E-01

  Timings for VdW correction (Tkatchenko-Scheffler 2009 or later):
  | CPU time:        0.089 s, Wall clock time:        0.090 s.
  Removing unitary transformations (pure translations, rotations) from forces on atoms.
  Atomic forces before filtering:
  | Net force on center of mass :  -0.155292E-02 -0.506812E-02 -0.177839E-03 eV/A
  | Net torque on center of mass:  -0.747961E-02  0.415211E-02 -0.451693E-02 eV
  Atomic forces after filtering:
  | Net force on center of mass :  -0.446015E-16  0.000000E+00 -0.557519E-16 eV/A
  | Net torque on center of mass:  -0.188817E-15  0.182916E-15 -0.566451E-15 eV

  Energy and forces in a compact form:
  | Total energy uncorrected      :         -0.880312440618502E+04 eV
  | Total energy corrected        :         -0.880312440618502E+04 eV  <-- do not rely on this value for anything but (periodic) metals
  | Electronic free energy        :         -0.880312440618502E+04 eV
  Total atomic forces (unitary forces cleaned) [eV/Ang]:
  |   1         -0.738686286144712E+00         -0.140417113748213E+00         -0.757647613161828E+00
  |   2          0.274428154489659E+00          0.594294820502311E-01         -0.431267885847109E-01
  |   3          0.659118977644700E+00          0.544097583836777E+00          0.592985121379459E+00
  |   4         -0.298048113869480E+00         -0.186328847053634E+00         -0.106672594193176E+00
  |   5          0.185260930319695E-01         -0.142109087222510E+00         -0.253331553068524E+00
  |   6          0.156334742030088E+00         -0.376935674413481E+00          0.176090861923282E+00
  |   7         -0.227801365908200E+00          0.304812234542742E-01         -0.915961476310130E-02
  |   8          0.988897024181017E-02         -0.143046796477414E-01          0.214234849265979E+00
  |   9          0.533571648649183E-01          0.115150480242898E-01         -0.185196230534918E+00
  |  10          0.133175890374251E+01          0.219149382655727E+01          0.610453900913573E+00
  |  11          0.789351822797528E+00          0.286577733552573E+00          0.172871135284568E+01
  |  12         -0.162696836060861E+01         -0.139374900445127E+01         -0.201037668026818E+01
  |  13         -0.401260702312176E+00         -0.869750490938565E+00          0.430349882464611E-01

  ------------------------------------ 
  Start decomposition of the XC Energy 
  ------------------------------------ 
  X and C from original XC functional choice 
  Hartree-Fock Energy :          0.000000000 Ha              0.000000000 eV
  X Energy            :        -41.038607655 Ha          -1116.717332255 eV
  C Energy            :         -1.600436759 Ha            -43.550100024 eV
  Total XC Energy     :        -42.639044415 Ha          -1160.267432279 eV
  ------------------------------------ 
  LDA X and C from self-consistent density 
  X Energy LDA        :        -37.257618094 Ha          -1013.831371514 eV
  C Energy LDA        :         -3.138599230 Ha            -85.405630440 eV
  ------------------------------------ 
  End decomposition of the XC Energy 
  ------------------------------------ 

------------------------------------------------------------

------------------------------------------------------------------------------
  Final output of selected total energy values:

  The following output summarizes some interesting total energy values
  at the end of a run (AFTER all relaxation, molecular dynamics, etc.).

  | Total energy of the DFT / Hartree-Fock s.c.f. calculation      :          -8803.124406185 eV
  | Final zero-broadening corrected energy (caution - metals only) :          -8803.124406185 eV
  | For reference only, the value of 1 Hartree used in FHI-aims is :             27.211384500 eV

  Before relying on these values, please be sure to understand exactly which
  total energy value is referred to by a given number. Different objects may
  all carry the same name 'total energy'. Definitions:

  Total energy of the DFT / Hartree-Fock s.c.f. calculation:
  | Note that this energy does not include ANY quantities calculated after the
  | s.c.f. cycle, in particular not ANY RPA, MP2, etc. many-body perturbation terms.

  Final zero-broadening corrected energy:
  | For metallic systems only, a broadening of the occupation numbers at the Fermi
  | level can be extrapolated back to zero broadening by an electron-gas inspired
  | formula. For all systems that are not real metals, this value can be
  | meaningless and should be avoided.

------------------------------------------------------------------------------
  Methods described in the following list of references were used in this FHI-aims run.
  If you publish the results, please make sure to cite these reference if they apply.
  FHI-aims is an academic code, and for our developers (often, Ph.D. students
  and postdocs), scientific credit in the community is essential.
  Thank you for helping us!

  For any use of FHI-aims, please cite:

    Volker Blum, Ralf Gehrke, Felix Hanke, Paula Havu, Ville Havu,
    Xinguo Ren, Karsten Reuter, and Matthias Scheffler
    'Ab initio molecular simulations with numeric atom-centered orbitals'
    Computer Physics Communications 180, 2175-2196 (2009)
    http://dx.doi.org/10.1016/j.cpc.2009.06.022


  The scalable eigensolver library ELPA was used in your run.
  ELPA is essential especially for large systems on hundreds or thousands of CPUs.
  For ELPA, please cite:

    Andreas Marek, Volker Blum, Rainer Johanni, Ville Havu, Bruno Lang,
    Thomas Auckenthaler, Alexander Heinecke, Hans-Joachim Bungartz, and Hermann Lederer,
    'The ELPA Library - Scalable Parallel Eigenvalue Solutions
    for Electronic Structure Theory and Computational Science'
    The Journal of Physics: Condensed Matter 26, 213201 (2014).
    http://dx.doi.org/10.1088/0953-8984/26/21/213201


  The ELSI infrastructure was used in your run to solve the Kohn-Sham electronic structure.
  Please check out http://elsi-interchange.org to learn more.
  If scalability is important for your project, please acknowledge ELSI by citing:

    V. W-z. Yu, F. Corsetti, A. Garcia, W. P. Huhn, M. Jacquelin, W. Jia,
    B. Lange, L. Lin, J. Lu, W. Mi, A. Seifitokaldani, A. Vazquez-Mayagoitia,
    C. Yang, H. Yang, and V. Blum
    'ELSI: A unified software interface for Kohn-Sham electronic structure solvers'
    Computer Physics Communications 222, 267-285 (2018).
    http://dx.doi.org/10.1016/j.cpc.2017.09.007


  For the real-space grid partitioning and parallelization used in this calculation, please cite:

    Ville Havu, Volker Blum, Paula Havu, and Matthias Scheffler,
    'Efficient O(N) integration for all-electron electronic structure calculation'
    'using numerically tabulated basis functions'
    Journal of Computational Physics 228, 8367-8379 (2009).
    http://dx.doi.org/10.1016/j.jcp.2009.08.008

  Of course, there are many other important community references, e.g., those cited in the
  above references. Our list is limited to references that describe implementations in the
  FHI-aims code. The reason is purely practical (length of this list) - please credit others as well.

------------------------------------------------------------
          Leaving FHI-aims.
          Date     :  20200710, Time     :  145600.484

          Computational steps:
          | Number of self-consistency cycles          :           16
          | Number of SCF (re)initializations          :            1

          Detailed time accounting                     :  max(cpu_time)    wall_clock(cpu1)
          | Total time                                 :       22.496 s          22.543 s
          | Preparation time                           :        0.145 s           0.146 s
          | Boundary condition initalization           :        0.000 s           0.000 s
          | Grid partitioning                          :        0.111 s           0.111 s
          | Preloading free-atom quantities on grid    :        0.002 s           0.002 s
          | Free-atom superposition energy             :        0.084 s           0.085 s
          | Total time for integrations                :        8.558 s           8.568 s
          | Total time for solution of K.-S. equations :        0.037 s           0.037 s
          | Total time for density & force components  :        7.078 s           7.093 s
          | Total time for mixing                      :        0.211 s           0.215 s
          | Total time for Hartree multipole update    :        0.142 s           0.143 s
          | Total time for Hartree multipole sum       :        5.732 s           5.734 s
          | Total time for total energy evaluation     :        0.003 s           0.001 s
          | Total time for vdW correction              :        0.089 s           0.090 s

          Partial memory accounting:
          | Residual value for overall tracked memory usage across tasks :           0.000 MB (should be 0.000 MB)
          | Peak values for overall tracked memory usage (after allocating hessian_basis_wave):
          |   Minimum:        1.622 MB (on task 1)
          |   Maximum:        1.622 MB (on task 1)
          |   Average:        1.622 MB
          | Largest tracked array allocation (hessian_basis_wave):
          |   Minimum:        0.794 MB (on task 1)
          |   Maximum:        0.794 MB (on task 1)
          |   Average:        0.794 MB
          Note:  These values currently only include a subset of arrays which are explicitly tracked.
          The "true" memory usage will be greater.

          Have a nice day.
------------------------------------------------------------
