  MPI-parallelism will be employed.
------------------------------------------------------------
          Invoking FHI-aims ...
          Version 171221_1
          Compiled on 2019/09/09 at 14:39:39 on host puhti-login2.bullx.

          When using FHI-aims, please cite the following reference:

          Volker Blum, Ralf Gehrke, Felix Hanke, Paula Havu,
          Ville Havu, Xinguo Ren, Karsten Reuter, and Matthias Scheffler,
          'Ab Initio Molecular Simulations with Numeric Atom-Centered Orbitals',
          Computer Physics Communications 180, 2175-2196 (2009)

          For any questions about FHI-aims, please visit the aimsclub website
          with its forums and wiki. Contributions to both the forums and the
          wiki are warmly encouraged - they are for you, and everyone is welcome there.

------------------------------------------------------------



  Date     :  20200616, Time     :  062825.253
  Time zero on CPU 1             :   0.308080000000000E-01  s.
  Internal wall clock time zero  :           361520905.253  s.

  FHI-aims created a unique identifier for this run for later identification
  aims_uuid : 7419A50C-C24C-49ED-A5CC-2B31CF4C1698

  Using       20 parallel tasks.
  Task        0 on host r06c54.bullx reporting.
  Task        1 on host r06c54.bullx reporting.
  Task        2 on host r06c54.bullx reporting.
  Task        3 on host r06c54.bullx reporting.
  Task        4 on host r06c54.bullx reporting.
  Task        5 on host r06c54.bullx reporting.
  Task        6 on host r06c54.bullx reporting.
  Task        7 on host r06c54.bullx reporting.
  Task        8 on host r06c54.bullx reporting.
  Task        9 on host r06c54.bullx reporting.
  Task       10 on host r06c54.bullx reporting.
  Task       11 on host r06c54.bullx reporting.
  Task       12 on host r06c54.bullx reporting.
  Task       13 on host r06c54.bullx reporting.
  Task       14 on host r06c54.bullx reporting.
  Task       15 on host r06c54.bullx reporting.
  Task       16 on host r06c54.bullx reporting.
  Task       17 on host r06c54.bullx reporting.
  Task       18 on host r06c54.bullx reporting.
  Task       19 on host r06c54.bullx reporting.

  Performing system and environment tests:
  | Environment variable OMP_NUM_THREADS correctly set to 1.
  | Stacksize not measured: no C compiler
  | Checking for scalapack...
  | Testing pdtran()...
  | All pdtran() tests passed.

  Obtaining array dimensions for all initial allocations:
  
  -----------------------------------------------------------------------
  Parsing control.in (first pass over file, find array dimensions only).
  The contents of control.in will be repeated verbatim below
  unless switched off by setting 'verbatim_writeout .false.' .
  in the first line of control.in .
  -----------------------------------------------------------------------
  
  #########################################################################################
  #
  #  Volker Blum, FHI 2009 : Test run input file control.in for simple H2O
  #
  #########################################################################################
  #
  #  Physical model
  #
    xc                 pbe
    vdw_correction_hirshfeld
    spin               none
    relativistic       none
    charge             0.
  #
  #  SCF convergence
  #
    occupation_type    gaussian 0.01
    mixer              pulay
      n_max_pulay        10
      charge_mix_param   0.2
    sc_accuracy_rho    1E-5
    sc_accuracy_eev    1E-3
    sc_accuracy_etot   1E-6
    sc_accuracy_forces 1E-4
    sc_iter_limit      100
  #
  #  Relaxation
  #
  #  relax_geometry   bfgs 1.e-3
  #
  ################################################################################
  #
  #  FHI-aims code project
  #  VB, Fritz-Haber Institut, 2009
  #
  #  Suggested "light" defaults for H atom (to be pasted into control.in file)
  #  Be sure to double-check any results obtained with these settings for post-processing,
  #  e.g., with the "tight" defaults and larger basis sets.
  #
  ################################################################################
    species        H
  #     global species definitions
      nucleus             1
      mass                1.00794
  #
      l_hartree           4
  #
      cut_pot             3.5  1.5  1.0
      basis_dep_cutoff    1e-4
  #
      radial_base         24 5.0
      radial_multiplier   1
      angular_grids       specified
        division   0.2421   50
        division   0.3822  110
        division   0.4799  194
        division   0.5341  302
  #      division   0.5626  434
  #      division   0.5922  590
  #      division   0.6542  770
  #      division   0.6868 1202
  #      outer_grid  770
        outer_grid  302
  ################################################################################
  #
  #  Definition of "minimal" basis
  #
  ################################################################################
  #     valence basis states
      valence      1  s   1.
  #     ion occupancy
      ion_occ      1  s   0.5
  ################################################################################
  #
  #  Suggested additional basis functions. For production calculations,
  #  uncomment them one after another (the most important basis functions are
  #  listed first).
  #
  #  Basis constructed for dimers: 0.5 A, 0.7 A, 1.0 A, 1.5 A, 2.5 A
  #
  ################################################################################
  #  "First tier" - improvements: -1014.90 meV to -62.69 meV
       hydro 2 s 2.1
       hydro 2 p 3.5
  #  "Second tier" - improvements: -12.89 meV to -1.83 meV
  #     hydro 1 s 0.85
  #     hydro 2 p 3.7
  #     hydro 2 s 1.2
  #     hydro 3 d 7
  #  "Third tier" - improvements: -0.25 meV to -0.12 meV
  #     hydro 4 f 11.2
  #     hydro 3 p 4.8
  #     hydro 4 d 9
  #     hydro 3 s 3.2
  ################################################################################
  #
  #  FHI-aims code project
  #  VB, Fritz-Haber Institut, 2009
  #
  #  Suggested "light" defaults for C atom (to be pasted into control.in file)
  #  Be sure to double-check any results obtained with these settings for post-processing,
  #  e.g., with the "tight" defaults and larger basis sets.
  #
  ################################################################################
    species        C
  #     global species definitions
      nucleus             6
      mass                12.0107
  #
      l_hartree           4
  #
      cut_pot             3.5  1.5  1.0
      basis_dep_cutoff    1e-4
  #
      radial_base         34 5.0
      radial_multiplier   1
      angular_grids specified
        division   0.3326   50
        division   0.5710  110
        division   0.7727  194
        division   0.8772  302
  #      division   0.9334  434
  #      division   0.9625  590
  #      division   0.9924  770
  #      division   1.0230  974
  #      division   1.4589 1202
  #     outer_grid  974
       outer_grid 302
  ################################################################################
  #
  #  Definition of "minimal" basis
  #
  ################################################################################
  #     valence basis states
      valence      2  s   2.
      valence      2  p   2.
  #     ion occupancy
      ion_occ      2  s   1.
      ion_occ      2  p   1.
  ################################################################################
  #
  #  Suggested additional basis functions. For production calculations,
  #  uncomment them one after another (the most important basis functions are
  #  listed first).
  #
  #  Constructed for dimers: 1.0 A, 1.25 A, 1.5 A, 2.0 A, 3.0 A
  #
  ################################################################################
  #  "First tier" - improvements: -1214.57 meV to -155.61 meV
       hydro 2 p 1.7
       hydro 3 d 6
       hydro 2 s 4.9
  #  "Second tier" - improvements: -67.75 meV to -5.23 meV
  #     hydro 4 f 9.8
  #     hydro 3 p 5.2
  #     hydro 3 s 4.3
  #     hydro 5 g 14.4
  #     hydro 3 d 6.2
  #  "Third tier" - improvements: -2.43 meV to -0.60 meV
  #     hydro 2 p 5.6
  #     hydro 2 s 1.4
  #     hydro 3 d 4.9
  #     hydro 4 f 11.2
  #  "Fourth tier" - improvements: -0.39 meV to -0.18 meV
  #     hydro 2 p 2.1
  #     hydro 5 g 16.4
  #     hydro 4 d 13.2
  #     hydro 3 s 13.6
  #     hydro 4 f 17.6
  #  Further basis functions - improvements: -0.08 meV and below
  #     hydro 3 s 2
  #     hydro 3 p 6
  #     hydro 4 d 20
  ################################################################################
  #
  #  FHI-aims code project
  #  VB, Fritz-Haber Institut, 2009
  #
  #  Suggested "light" defaults for N atom (to be pasted into control.in file)
  #  Be sure to double-check any results obtained with these settings for post-processing,
  #  e.g., with the "tight" defaults and larger basis sets.
  #
  ################################################################################
    species        N
  #     global species definitions
      nucleus             7
      mass                14.0067
  #
      l_hartree           4
  #
      cut_pot             3.5  1.5  1.0
      basis_dep_cutoff    1e-4
  #
      radial_base         35 5.0
      radial_multiplier   1
      angular_grids       specified
        division   0.2599   50
        division   0.4601  110
        division   0.5885  194
        division   0.6503  302
  #      division   0.6939  434
  #      division   0.7396  590
  #      division   0.7632  770
  #      division   0.8122  974
  #      division   1.1604 1202
  #      outer_grid  974
        outer_grid  302
  ################################################################################
  #
  #  Definition of "minimal" basis
  #
  ################################################################################
  #     valence basis states
      valence      2  s   2.
      valence      2  p   3.
  #     ion occupancy
      ion_occ      2  s   1.
      ion_occ      2  p   2.
  ################################################################################
  #
  #  Suggested additional basis functions. For production calculations,
  #  uncomment them one after another (the most important basis functions are
  #  listed first).
  #
  #  Constructed for dimers: 1.0 A, 1.1 A, 1.5 A, 2.0 A, 3.0 A
  #
  ################################################################################
  #  "First tier" - improvements: -1193.42 meV to -220.60 meV
       hydro 2 p 1.8
       hydro 3 d 6.8
       hydro 3 s 5.8
  #  "Second tier" - improvements: -80.21 meV to -6.86 meV
  #     hydro 4 f 10.8
  #     hydro 3 p 5.8
  #     hydro 1 s 0.8
  #     hydro 5 g 16
  #     hydro 3 d 4.9
  #  "Third tier" - improvements: -4.29 meV to -0.53 meV
  #     hydro 3 s 16
  #     ionic 2 p auto
  #     hydro 3 d 6.6
  #     hydro 4 f 11.6
  #  "Fourth tier" - improvements: -0.75 meV to -0.25 meV
  #     hydro 2 p 4.5
  #     hydro 2 s 2.4
  #     hydro 5 g 14.4
  #     hydro 4 d 14.4
  #     hydro 4 f 16.8
  # Further basis functions - -0.21 meV and below
  #     hydro 3 p 14.8
  #     hydro 3 s 4.4
  #     hydro 3 d 19.6
  #     hydro 5 g 12.8
  ################################################################################
  #
  #  FHI-aims code project
  #  VB, Fritz-Haber Institut, 2009
  #
  #  Suggested "light" defaults for O atom (to be pasted into control.in file)
  #  Be sure to double-check any results obtained with these settings for post-processing,
  #  e.g., with the "tight" defaults and larger basis sets.
  #
  ################################################################################
    species        O
  #     global species definitions
      nucleus             8
      mass                15.9994
  #
      l_hartree           4
  #
      cut_pot             3.5  1.5  1.0
      basis_dep_cutoff    1e-4
  #
      radial_base         36 5.0
      radial_multiplier   1
       angular_grids specified
        division   0.2659   50
        division   0.4451  110
        division   0.6052  194
        division   0.7543  302
  #      division   0.8014  434
  #      division   0.8507  590
  #      division   0.8762  770
  #      division   0.9023  974
  #      division   1.2339 1202
  #      outer_grid 974
        outer_grid 302
  ################################################################################
  #
  #  Definition of "minimal" basis
  #
  ################################################################################
  #     valence basis states
      valence      2  s   2.
      valence      2  p   4.
  #     ion occupancy
      ion_occ      2  s   1.
      ion_occ      2  p   3.
  ################################################################################
  #
  #  Suggested additional basis functions. For production calculations,
  #  uncomment them one after another (the most important basis functions are
  #  listed first).
  #
  #  Constructed for dimers: 1.0 A, 1.208 A, 1.5 A, 2.0 A, 3.0 A
  #
  ################################################################################
  #  "First tier" - improvements: -699.05 meV to -159.38 meV
       hydro 2 p 1.8
       hydro 3 d 7.6
       hydro 3 s 6.4
  #  "Second tier" - improvements: -49.91 meV to -5.39 meV
  #     hydro 4 f 11.6
  #     hydro 3 p 6.2
  #     hydro 3 d 5.6
  #     hydro 5 g 17.6
  #     hydro 1 s 0.75
  #  "Third tier" - improvements: -2.83 meV to -0.50 meV
  #     ionic 2 p auto
  #     hydro 4 f 10.8
  #     hydro 4 d 4.7
  #     hydro 2 s 6.8
  #  "Fourth tier" - improvements: -0.40 meV to -0.12 meV
  #     hydro 3 p 5
  #     hydro 3 s 3.3
  #     hydro 5 g 15.6
  #     hydro 4 f 17.6
  #     hydro 4 d 14
  # Further basis functions - -0.08 meV and below
  #     hydro 3 s 2.1
  #     hydro 4 d 11.6
  #     hydro 3 p 16
  #     hydro 2 s 17.2
  
  -----------------------------------------------------------------------
  Completed first pass over input file control.in .
  -----------------------------------------------------------------------
  
  
  -----------------------------------------------------------------------
  Parsing geometry.in (first pass over file, find array dimensions only).
  The contents of geometry.in will be repeated verbatim below
  unless switched off by setting 'verbatim_writeout .false.' .
  in the first line of geometry.in .
  -----------------------------------------------------------------------
  
  atom  0.00000 0.00000 0.00000 C
  atom  1.09300 0.00000 0.00000 H
  atom  -0.47961 0.00000 -1.41207 N
  atom  0.24773 -0.40221 -2.00455 H
  atom  -1.32859 -0.55867 -1.46891 H
  atom  -0.49584 1.26211 0.72868 C
  atom  0.34965 1.88208 1.03582 H
  atom  -1.13891 1.85338 0.07262 H
  atom  -1.06677 0.98884 1.61914 H
  atom  -0.39425 -1.28861 0.74398 C
  atom  -0.21723 -1.50922 1.91840 O
  atom  -0.96493 -2.20342 0.02690 O
  atom  -1.77666 -1.71940 -0.20071 H
  
  -----------------------------------------------------------------------
  Completed first pass over input file geometry.in .
  -----------------------------------------------------------------------
  

  Basic array size parameters:
  | Number of species                 :        4
  | Number of atoms                   :       13
  | Max. basis fn. angular momentum   :        2
  | Max. atomic/ionic basis occupied n:        2
  | Max. number of basis fn. types    :        2
  | Max. radial fns per species/type  :        3
  | Max. logarithmic grid size        :     1301
  | Max. radial integration grid size :       36
  | Max. angular integration grid size:      302
  | Max. angular grid division number :        8
  | Radial grid for Hartree potential :     1301
  | Number of spin channels           :        1

------------------------------------------------------------
          Reading file control.in.
------------------------------------------------------------
  XC: Using PBE gradient-corrected functionals.
  Spin treatment: No spin polarisation.
  Non-relativistic treatment of kinetic energy.
  Charge =   0.000000E+00: Neutral system requested explicitly.
  Occupation type: Gaussian broadening, width =   0.100000E-01 eV.
  Using pulay charge density mixing.
  Pulay mixing - number of memorized iterations:   10
  Charge density mixing - mixing parameter:     0.2000
  Convergence accuracy of self-consistent charge density:  0.1000E-04
  Convergence accuracy of sum of eigenvalues:  0.1000E-02
  Convergence accuracy of total energy:  0.1000E-05
  Convergence accuracy of forces:  0.1000E-03
  Maximum number of s.-c. iterations  :   100
 
  Reading configuration options for species H                   .
  | Found nuclear charge :   1.0000
  | Found atomic mass :    1.00794000000000      amu
  | Found l_max for Hartree potential  :   4
  | Found cutoff potl. onset [A], width [A], scale factor :    3.50000    1.50000    1.00000
  | Threshold for basis-dependent cutoff potential is   0.100000E-03
  | Found data for basic radial integration grid :    24 points, outermost radius =    5.000 A
  | Found multiplier for basic radial grid :   1
  | Found angular grid specification: user-specified.
  | Specified grid contains     5 separate shells.
  | Check grid settings after all constraints further below.
  | Found free-atom valence shell :  1 s   1.000
  | No ionic wave fns used. Skipping ion_occ.
  | Found hydrogenic basis function :  2 s   2.100
  | Found hydrogenic basis function :  2 p   3.500
  Species H                   : Missing cutoff potential type.
  Defaulting to exp(1/x)/(1-x)^2 type cutoff potential.
  Species H : No 'logarithmic' tag. Using default grid for free atom:
  | Default logarithmic grid data [bohr] : 0.1000E-03 0.1000E+03 0.1012E+01
  Species H : On-site basis accuracy parameter (for Gram-Schmidt orthonormalisation) not specified.
  Using default value basis_acc =  0.1000000E-03.
  Species H                   : Using default innermost maximum threshold i_radial=  2 for radial functions.
  Species H                   : Default cutoff onset for free atom density etc. : 0.35000000E+01 AA.
  Species H                   : Basic radial grid will be enhanced according to radial_multiplier =   1, to contain    24 grid points.
 
  Reading configuration options for species C                   .
  | Found nuclear charge :   6.0000
  | Found atomic mass :    12.0107000000000      amu
  | Found l_max for Hartree potential  :   4
  | Found cutoff potl. onset [A], width [A], scale factor :    3.50000    1.50000    1.00000
  | Threshold for basis-dependent cutoff potential is   0.100000E-03
  | Found data for basic radial integration grid :    34 points, outermost radius =    5.000 A
  | Found multiplier for basic radial grid :   1
  | Found angular grid specification: user-specified.
  | Specified grid contains     5 separate shells.
  | Check grid settings after all constraints further below.
  | Found free-atom valence shell :  2 s   2.000
  | Found free-atom valence shell :  2 p   2.000
  | No ionic wave fns used. Skipping ion_occ.
  | No ionic wave fns used. Skipping ion_occ.
  | Found hydrogenic basis function :  2 p   1.700
  | Found hydrogenic basis function :  3 d   6.000
  | Found hydrogenic basis function :  2 s   4.900
  Species C                   : Missing cutoff potential type.
  Defaulting to exp(1/x)/(1-x)^2 type cutoff potential.
  Species C : No 'logarithmic' tag. Using default grid for free atom:
  | Default logarithmic grid data [bohr] : 0.1000E-03 0.1000E+03 0.1012E+01
  Species C : On-site basis accuracy parameter (for Gram-Schmidt orthonormalisation) not specified.
  Using default value basis_acc =  0.1000000E-03.
  Species C                   : Using default innermost maximum threshold i_radial=  2 for radial functions.
  Species C                   : Default cutoff onset for free atom density etc. : 0.35000000E+01 AA.
  Species C                   : Basic radial grid will be enhanced according to radial_multiplier =   1, to contain    34 grid points.
 
  Reading configuration options for species N                   .
  | Found nuclear charge :   7.0000
  | Found atomic mass :    14.0067000000000      amu
  | Found l_max for Hartree potential  :   4
  | Found cutoff potl. onset [A], width [A], scale factor :    3.50000    1.50000    1.00000
  | Threshold for basis-dependent cutoff potential is   0.100000E-03
  | Found data for basic radial integration grid :    35 points, outermost radius =    5.000 A
  | Found multiplier for basic radial grid :   1
  | Found angular grid specification: user-specified.
  | Specified grid contains     5 separate shells.
  | Check grid settings after all constraints further below.
  | Found free-atom valence shell :  2 s   2.000
  | Found free-atom valence shell :  2 p   3.000
  | No ionic wave fns used. Skipping ion_occ.
  | No ionic wave fns used. Skipping ion_occ.
  | Found hydrogenic basis function :  2 p   1.800
  | Found hydrogenic basis function :  3 d   6.800
  | Found hydrogenic basis function :  3 s   5.800
  Species N                   : Missing cutoff potential type.
  Defaulting to exp(1/x)/(1-x)^2 type cutoff potential.
  Species N : No 'logarithmic' tag. Using default grid for free atom:
  | Default logarithmic grid data [bohr] : 0.1000E-03 0.1000E+03 0.1012E+01
  Species N : On-site basis accuracy parameter (for Gram-Schmidt orthonormalisation) not specified.
  Using default value basis_acc =  0.1000000E-03.
  Species N                   : Using default innermost maximum threshold i_radial=  2 for radial functions.
  Species N                   : Default cutoff onset for free atom density etc. : 0.35000000E+01 AA.
  Species N                   : Basic radial grid will be enhanced according to radial_multiplier =   1, to contain    35 grid points.
 
  Reading configuration options for species O                   .
  | Found nuclear charge :   8.0000
  | Found atomic mass :    15.9994000000000      amu
  | Found l_max for Hartree potential  :   4
  | Found cutoff potl. onset [A], width [A], scale factor :    3.50000    1.50000    1.00000
  | Threshold for basis-dependent cutoff potential is   0.100000E-03
  | Found data for basic radial integration grid :    36 points, outermost radius =    5.000 A
  | Found multiplier for basic radial grid :   1
  | Found angular grid specification: user-specified.
  | Specified grid contains     5 separate shells.
  | Check grid settings after all constraints further below.
  | Found free-atom valence shell :  2 s   2.000
  | Found free-atom valence shell :  2 p   4.000
  | No ionic wave fns used. Skipping ion_occ.
  | No ionic wave fns used. Skipping ion_occ.
  | Found hydrogenic basis function :  2 p   1.800
  | Found hydrogenic basis function :  3 d   7.600
  | Found hydrogenic basis function :  3 s   6.400
  Species O                   : Missing cutoff potential type.
  Defaulting to exp(1/x)/(1-x)^2 type cutoff potential.
  Species O : No 'logarithmic' tag. Using default grid for free atom:
  | Default logarithmic grid data [bohr] : 0.1000E-03 0.1000E+03 0.1012E+01
  Species O : On-site basis accuracy parameter (for Gram-Schmidt orthonormalisation) not specified.
  Using default value basis_acc =  0.1000000E-03.
  Species O                   : Using default innermost maximum threshold i_radial=  2 for radial functions.
  Species O                   : Default cutoff onset for free atom density etc. : 0.35000000E+01 AA.
  Species O                   : Basic radial grid will be enhanced according to radial_multiplier =   1, to contain    36 grid points.
 
  Finished reading input file 'control.in'. Consistency checks are next.
 
  MPI_IN_PLACE appears to work with this MPI implementation.
  | Keeping use_mpi_in_place .true. (see manual).
  Target number of points in a grid batch is not set. Defaulting to  100
  Method for grid partitioning is not set. Defaulting to parallel hash+maxmin partitioning.
  Batch size limit is not set. Defaulting to    200
  By default, will store active basis functions for each batch.
  If in need of memory, prune_basis_once .false. can be used to disable this option.
  communication_type for Hartree potential was not specified.
  Defaulting to calc_hartree .
  Pulay mixer: Number of initial linear mixing iterations not set.
  Defaulting to    0 iterations.
  Work space size for distributed Hartree potential not set.
  Defaulting to   0.200000E+03 MB.
  Algorithm-dependent basis array size parameters:
  | n_max_pulay                         :       10
  Presetting      1001 iterations before the initial mixing cycle
  is restarted anyway using the sc_init_iter criterion / keyword.
  Presetting a factor      1.000 between actual scf density residual
  and density convergence criterion sc_accuracy_rho below which sc_init_iter
  takes no effect.
  Geometry relaxation not requested: no relaxation will be performed.
  Handling of forces: Unphysical translation and rotation will be removed from forces.
  No accuracy limit for integral partition fn. given. Defaulting to  0.1000E-14.
  No threshold value for u(r) in integrations given. Defaulting to  0.1000E-05.
  No accuracy for occupation numbers given. Defaulting to  0.1000E-12.
  No threshold value for occupation numbers given. Defaulting to  0.0000E+00.
  No accuracy for fermi level given. Defaulting to  0.1000E-19.
  Maximum # of iterations to find E_F not set. Defaulting to  200.
  Preferred method for the eigenvalue solver ('KS_method') not specified in 'control.in'.
  Calling BLACS routine to test compilation state
  Since ScaLAPACK support is enabled, defaulting to 'elsi'.
  Will not use alltoall communication since running on < 1024 CPUs.
  Threshold for basis singularities not set.
  Default threshold for basis singularities:  0.1000E-04
  partition_type (choice of integration weights) for integrals was not specified.
  | Using a version of the partition function of Stratmann and coworkers ('stratmann_smoother').
  | At each grid point, the set of atoms used to build the partition table is smoothly restricted to
  | only those atoms whose free-atom density would be non-zero at that grid point.
  Partitioning for Hartree potential was not defined. Using partition_type for integrals.
  | Adjusted default value of keyword multip_moments_threshold to:       0.10000000E-11
  | This value may affect high angular momentum components of the Hartree potential in periodic systems.
  No q(lm)/r^(l+1) cutoff set for long-range Hartree potential.
  | Using default value of  0.100000E-09 .
  | Verify using the multipole_threshold keyword.
  Defaulting to new monopole extrapolation.
  Density update method: automatic selection selected.
------------------------------------------------------------


------------------------------------------------------------
          Reading geometry description geometry.in.
------------------------------------------------------------
  Input structure read successfully.
  The structure contains       13 atoms,  and a total of         48.000 electrons.

  Input geometry:
  | No unit cell requested.
  | Atomic structure:
  |       Atom                x [A]            y [A]            z [A]
  |    1: Species C             0.00000000        0.00000000        0.00000000
  |    2: Species H             1.09300000        0.00000000        0.00000000
  |    3: Species N            -0.47961000        0.00000000       -1.41207000
  |    4: Species H             0.24773000       -0.40221000       -2.00455000
  |    5: Species H            -1.32859000       -0.55867000       -1.46891000
  |    6: Species C            -0.49584000        1.26211000        0.72868000
  |    7: Species H             0.34965000        1.88208000        1.03582000
  |    8: Species H            -1.13891000        1.85338000        0.07262000
  |    9: Species H            -1.06677000        0.98884000        1.61914000
  |   10: Species C            -0.39425000       -1.28861000        0.74398000
  |   11: Species O            -0.21723000       -1.50922000        1.91840000
  |   12: Species O            -0.96493000       -2.20342000        0.02690000
  |   13: Species H            -1.77666000       -1.71940000       -0.20071000
  |

  | The smallest distance between any two atoms is         0.97210455 AA.
  |
  | The first atom of this pair is atom number                     12 .
  | The second atom of this pair is atom number                    13 .

  Number of empty states per atom not set in control.in - providing a guess from actual geometry.
  | Total number of empty states used during s.c.f. cycle:       29
  If you use a very high smearing, use empty_states (per atom!) in control.in to increase this value.

  Structure-dependent array size parameters: 
  | Maximum number of distinct radial functions  :       21
  | Maximum number of basis functions            :      119
  | Number of Kohn-Sham states (occupied + empty):       53
------------------------------------------------------------

------------------------------------------------------------
          Preparing all fixed parts of the calculation.
------------------------------------------------------------
  Determining machine precision:
    2.225073858507201E-308
  Setting up grids for atomic and cluster calculations.

  Creating wave function, potential, and density for free atoms.

  Species: H

  List of occupied orbitals and eigenvalues:
    n    l              occ      energy [Ha]    energy [eV]
    1    0           1.0000        -0.237589        -6.4651


  Species: C

  List of occupied orbitals and eigenvalues:
    n    l              occ      energy [Ha]    energy [eV]
    1    0           2.0000       -10.038835      -273.1706
    2    0           2.0000        -0.502696       -13.6791
    2    1           2.0000        -0.191971        -5.2238


  Species: N

  List of occupied orbitals and eigenvalues:
    n    l              occ      energy [Ha]    energy [eV]
    1    0           2.0000       -14.128000      -384.4424
    2    0           2.0000        -0.681077       -18.5330
    2    1           3.0000        -0.259788        -7.0692


  Species: O

  List of occupied orbitals and eigenvalues:
    n    l              occ      energy [Ha]    energy [eV]
    1    0           2.0000       -18.898188      -514.2459
    2    0           2.0000        -0.878505       -23.9053
    2    1           4.0000        -0.331779        -9.0282

  Creating fixed part of basis set: Ionic, confined, hydrogenic.
 
  H                    hydrogenic:
 
  List of hydrogenic basis orbitals: 
    n    l      effective z      eigenvalue [eV]  inner max. [A]     outer max. [A]     outer radius [A]   
    2    0         2.100000       -14.9728           0.193243           1.317208           4.583499
    2    1         3.500000       -41.6669           0.602369           0.602369           3.723403
 
 
  C                    hydrogenic:
 
  List of hydrogenic basis orbitals: 
    n    l      effective z      eigenvalue [eV]  inner max. [A]     outer max. [A]     outer radius [A]   
    2    1         1.700000        -9.7616           1.230570           1.230570           4.607917
    3    2         6.000000       -54.4224           0.792453           0.792453           3.883070
    2    0         4.900000       -81.6679           0.082559           0.562749           3.078220
 
 
  N                    hydrogenic:
 
  List of hydrogenic basis orbitals: 
    n    l      effective z      eigenvalue [eV]  inner max. [A]     outer max. [A]     outer radius [A]   
    2    1         1.800000       -10.9749           1.177451           1.177451           4.573712
    3    2         6.800000       -69.9026           0.704619           0.704619           3.538137
    3    0         5.800000       -50.8545           0.067388           1.191934           4.250239
 
 
  O                    hydrogenic:
 
  List of hydrogenic basis orbitals: 
    n    l      effective z      eigenvalue [eV]  inner max. [A]     outer max. [A]     outer radius [A]   
    2    1         1.800000       -10.9749           1.164242           1.164242           4.578029
    3    2         7.600000       -87.3180           0.624125           0.624125           3.251020
    3    0         6.400000       -61.9207           0.061167           1.081902           4.001998
 

  Adding cutoff potential to free-atom effective potential.
  Creating atomic-like basis functions for current effective potential.

  Species H                   :

  List of atomic basis orbitals and eigenvalues:
    n    l      energy [Ha]    energy [eV]    outer radius [A]
    1    0        -0.237589        -6.4651       4.527807


  Species C                   :

  List of atomic basis orbitals and eigenvalues:
    n    l      energy [Ha]    energy [eV]    outer radius [A]
    1    0       -10.038835      -273.1706       1.934409
    2    0        -0.502696       -13.6791       4.496620
    2    1        -0.191971        -5.2238       4.551928


  Species N                   :

  List of atomic basis orbitals and eigenvalues:
    n    l      energy [Ha]    energy [eV]    outer radius [A]
    1    0       -14.128000      -384.4424       1.637919
    2    0        -0.681077       -18.5330       4.463241
    2    1        -0.259788        -7.0692       4.518138


  Species O                   :

  List of atomic basis orbitals and eigenvalues:
    n    l      energy [Ha]    energy [eV]    outer radius [A]
    1    0       -18.898188      -514.2459       1.415765
    2    0        -0.878505       -23.9053       4.413171
    2    1        -0.331779        -9.0282       4.522403

  Assembling full basis from fixed parts.
  | Species H :   atomic orbital   1 s accepted.
  | Species H :    hydro orbital   2 s accepted.
  | Species H :    hydro orbital   2 p accepted.
  | Species C :   atomic orbital   1 s accepted.
  | Species C :    hydro orbital   2 s accepted.
  | Species C :   atomic orbital   2 s accepted.
  | Species C :   atomic orbital   2 p accepted.
  | Species C :    hydro orbital   2 p accepted.
  | Species C :    hydro orbital   3 d accepted.
  | Species N :   atomic orbital   1 s accepted.
  | Species N :    hydro orbital   3 s accepted.
  | Species N :   atomic orbital   2 s accepted.
  | Species N :   atomic orbital   2 p accepted.
  | Species N :    hydro orbital   2 p accepted.
  | Species N :    hydro orbital   3 d accepted.
  | Species O :   atomic orbital   1 s accepted.
  | Species O :    hydro orbital   3 s accepted.
  | Species O :   atomic orbital   2 s accepted.
  | Species O :   atomic orbital   2 p accepted.
  | Species O :    hydro orbital   2 p accepted.
  | Species O :    hydro orbital   3 d accepted.
 
  Basis size parameters after reduction:
  | Total number of radial functions:       21
  | Total number of basis functions :      119
 
  Per-task memory consumption for arrays in subroutine allocate_ext:
  |           5.250512MB.
  Testing on-site integration grid accuracy.
  |  Species  Function  <phi|h_atom|phi> (log., in eV)  <phi|h_atom|phi> (rad., in eV)
           1        1                 -6.4663192853                 -6.4651273558
           1        2                 13.7111246313                 13.7170609718
           1        3                 25.2673269279                 25.2674696378
           2        4               -273.1705927641               -273.1705631568
           2        5                -10.7109323383                -10.7107120029
           2        6                 17.4381822266                 17.4352413244
           2        7                 -5.2255326521                 -5.2270484734
           2        8                  8.6835629259                  8.6603288385
           2        9                 27.4952418996                 27.4953360207
           3       10               -384.4424306495               -384.4423701208
           3       11                 12.5842251816                 12.5842222903
           3       12                -15.7264628251                -15.7264433455
           3       13                 -7.0696854293                 -7.0701769954
           3       14                  8.8090390882                  8.7901077751
           3       15                 35.9586762123                 35.9588528632
           4       16               -514.2458688638               -514.2457643834
           4       17                 15.1795651126                 15.1795290741
           4       18                -21.5359799773                -21.5360846186
           4       19                 -9.0283069236                 -9.0284644067
           4       20                  8.3027758564                  8.2834874195
           4       21                 45.8339351984                 45.8338762259

  Preparing densities etc. for the partition functions (integrals / Hartree potential).

  Preparations completed.
  max(cpu_time)          :      0.163 s.
  Wall clock time (cpu1) :      0.163 s.
------------------------------------------------------------

------------------------------------------------------------
          Begin self-consistency loop: Initialization.

          Date     :  20200616, Time     :  062825.462
------------------------------------------------------------

  Initializing index lists of integration centers etc. from given atomic structure:
  | Number of centers in hartree potential         :        13
  | Number of centers in hartree multipole         :        13
  | Number of centers in electron density summation:        13
  | Number of centers in basis integrals           :        13
  | Number of centers in integrals                 :        13
  | Number of centers in hamiltonian               :        13
  * Using 20 tasks for Scalapack Eigenvalue solver.
  Detailed listing of tasks and assigned k-points:
  (for non-periodic systems, the "k-point" denotes an internal label only)
   Task     0 k-point     1 on r06c54.bullx
   Task     1 k-point     1 on r06c54.bullx
   Task     2 k-point     1 on r06c54.bullx
   Task     3 k-point     1 on r06c54.bullx
   Task     4 k-point     1 on r06c54.bullx
   Task     5 k-point     1 on r06c54.bullx
   Task     6 k-point     1 on r06c54.bullx
   Task     7 k-point     1 on r06c54.bullx
   Task     8 k-point     1 on r06c54.bullx
   Task     9 k-point     1 on r06c54.bullx
   Task    10 k-point     1 on r06c54.bullx
   Task    11 k-point     1 on r06c54.bullx
   Task    12 k-point     1 on r06c54.bullx
   Task    13 k-point     1 on r06c54.bullx
   Task    14 k-point     1 on r06c54.bullx
   Task    15 k-point     1 on r06c54.bullx
   Task    16 k-point     1 on r06c54.bullx
   Task    17 k-point     1 on r06c54.bullx
   Task    18 k-point     1 on r06c54.bullx
   Task    19 k-point     1 on r06c54.bullx
  Tasks:    20 split into      5 X      4 BLACS grid
  Calculating block size based on n_basis =          119  max_nprow =            5  max_npcol =            4
  ScaLAPACK block size set to:           16
  Allocating        0.008 MB for ovlp
  Allocating        0.008 MB for ham
  Allocating        0.008 MB for eigenvec
  Required Scalapack workspace - INTEGER:            1  REAL:             1
  Partitioning the integration grid into batches with parallel hashing+maxmin method.
  | Number of batches:      931
  | Maximal batch size:     191
  | Minimal batch size:      49
  | Average batch size:      74.808
  | Standard deviation of batch sizes:      22.125

  Integration load balanced across    20 MPI tasks.
  Work distribution over tasks is as follows:
  Task     0 has       3581 integration points.
  Task     1 has       3530 integration points.
  Task     2 has       3605 integration points.
  Task     3 has       3453 integration points.
  Task     4 has       3467 integration points.
  Task     5 has       3453 integration points.
  Task     6 has       3421 integration points.
  Task     7 has       3506 integration points.
  Task     8 has       3473 integration points.
  Task     9 has       3469 integration points.
  Task    10 has       3498 integration points.
  Task    11 has       3481 integration points.
  Task    12 has       3427 integration points.
  Task    13 has       3588 integration points.
  Task    14 has       3423 integration points.
  Task    15 has       3444 integration points.
  Task    16 has       3417 integration points.
  Task    17 has       3444 integration points.
  Task    18 has       3491 integration points.
  Task    19 has       3475 integration points.
  Initializing partition tables, free-atom densities, potentials, etc. across the integration grid (initialize_grid_storage).
  | initialize_grid_storage: Actual outermost partition radius vs. multipole_radius_free
  | (-- VB: in principle, multipole_radius_free should be larger, hence this output)
  | Species        1: Confinement radius =              4.999999999999999 AA, multipole_radius_free =              5.054417573612229 AA.
  | Species        1: outer_partition_radius set to              5.054417573612229 AA .
  | Species        2: Confinement radius =              4.999999999999999 AA, multipole_radius_free =              5.019602836301480 AA.
  | Species        2: outer_partition_radius set to              5.019602836301480 AA .
  | Species        3: Confinement radius =              4.999999999999999 AA, multipole_radius_free =              5.043624274424571 AA.
  | Species        3: outer_partition_radius set to              5.043624274424571 AA .
  | Species        4: Confinement radius =              4.999999999999999 AA, multipole_radius_free =              5.048384829883283 AA.
  | Species        4: outer_partition_radius set to              5.048384829883283 AA .
  | Original list of interatomic distances with          13 x         13 entries is created.
  | Net number of integration points:    69646
  | of which are non-zero points    :    59618
  Renormalizing the initial density to the exact electron count on the 3D integration grid.
  | Initial density: Formal number of electrons (from input files) :      48.0000000000
  | Integrated number of electrons on 3D grid     :      47.9999687606
  | Charge integration error                      :      -0.0000312394
  | Normalization factor for density and gradient :       1.0000006508
  Obtaining max. number of non-zero basis functions in each batch (get_n_compute_maxes).
  | Maximal number of non-zero basis functions:      119 in task     0
  | Maximal number of non-zero basis functions:      117 in task     1
  | Maximal number of non-zero basis functions:      118 in task     2
  | Maximal number of non-zero basis functions:      118 in task     3
  | Maximal number of non-zero basis functions:      119 in task     4
  | Maximal number of non-zero basis functions:      117 in task     5
  | Maximal number of non-zero basis functions:      118 in task     6
  | Maximal number of non-zero basis functions:      118 in task     7
  | Maximal number of non-zero basis functions:      119 in task     8
  | Maximal number of non-zero basis functions:      118 in task     9
  | Maximal number of non-zero basis functions:      119 in task    10
  | Maximal number of non-zero basis functions:      118 in task    11
  | Maximal number of non-zero basis functions:      118 in task    12
  | Maximal number of non-zero basis functions:      118 in task    13
  | Maximal number of non-zero basis functions:      118 in task    14
  | Maximal number of non-zero basis functions:      119 in task    15
  | Maximal number of non-zero basis functions:      118 in task    16
  | Maximal number of non-zero basis functions:      118 in task    17
  | Maximal number of non-zero basis functions:      118 in task    18
  | Maximal number of non-zero basis functions:      118 in task    19
  Selecting the method for density update.
  Loop over occupied states selected for charge density update.
  Allocating        0.050 MB for KS_eigenvector
  Integrating Hamiltonian matrix: batch-based integration.
  Time summed over all CPUs for integration: real work        0.523 s, elapsed        0.548 s
  Integrating overlap matrix.
  Time summed over all CPUs for integration: real work        0.219 s, elapsed        0.231 s
  Deallocating overlap matrix.

  Updating Kohn-Sham eigenvalues and eigenvectors using ELSI and the ELPA eigensolver.
  ELPA settings:
  | ELPA solver          1
  | Time full => band           :     0.001 s
  | Time band => tridiagonal    :     0.001 s
  | Time solve tridiagonal      :     0.001 s
  Overlap matrix is nonsingular
  | Lowest eigenvalue of overlap  :  0.41E-02
  | Highest eigenvalue of overlap :  0.63E+01
  Finished singularity check of overlap matrix
  | Time :     0.003 s
  Finished Cholesky decomposition
  | Time :     0.002 s
  Finished transformation to standard eigenproblem
  | Time :     0.001 s
  Starting ELPA eigensolver
  | Time full => tridiagonal    :     0.002 s
  | Time solve tridiagonal      :     0.000 s
  | Time ev tridiagonal => full :     0.001 s
  Finished solving standard eigenproblem
  | Time :     0.003 s
  Finished back-transformation of eigenvectors
  | Time :     0.000 s

  Obtaining occupation numbers and chemical potential using ELSI.
  | Chemical potential (Fermi level):    -9.68613772eV
  Writing Kohn-Sham eigenvalues.

  State    Occupation    Eigenvalue [Ha]    Eigenvalue [eV]
      1       2.00000         -19.008062         -517.23567
      2       2.00000         -18.977254         -516.39735
      3       2.00000         -14.246135         -387.65705
      4       2.00000         -10.166601         -276.64729
      5       2.00000         -10.141468         -275.96338
      6       2.00000         -10.132189         -275.71088
      7       2.00000          -1.183302          -32.19930
      8       2.00000          -1.099805          -29.92720
      9       2.00000          -0.991195          -26.97179
     10       2.00000          -0.861790          -23.45049
     11       2.00000          -0.751864          -20.45927
     12       2.00000          -0.678951          -18.47519
     13       2.00000          -0.643525          -17.51120
     14       2.00000          -0.613480          -16.69364
     15       2.00000          -0.575051          -15.64793
     16       2.00000          -0.568985          -15.48288
     17       2.00000          -0.550894          -14.99060
     18       2.00000          -0.541179          -14.72622
     19       2.00000          -0.513804          -13.98133
     20       2.00000          -0.486980          -13.25141
     21       2.00000          -0.461829          -12.56702
     22       2.00000          -0.426477          -11.60502
     23       2.00000          -0.420386          -11.43929
     24       2.00000          -0.381135          -10.37121
     25       0.00000          -0.158940           -4.32498
     26       0.00000          -0.081320           -2.21284
     27       0.00000          -0.038868           -1.05765
     28       0.00000          -0.033089           -0.90038
     29       0.00000          -0.005724           -0.15576
     30       0.00000           0.012073            0.32852
     31       0.00000           0.019307            0.52537
     32       0.00000           0.029219            0.79508
     33       0.00000           0.074149            2.01770
     34       0.00000           0.094189            2.56301
     35       0.00000           0.111050            3.02183
     36       0.00000           0.128395            3.49382
     37       0.00000           0.162177            4.41305
     38       0.00000           0.197947            5.38641
     39       0.00000           0.218632            5.94929
     40       0.00000           0.230961            6.28478
     41       0.00000           0.253999            6.91166
     42       0.00000           0.268649            7.31032
     43       0.00000           0.295447            8.03953
     44       0.00000           0.310646            8.45310
     45       0.00000           0.312368            8.49996
     46       0.00000           0.351246            9.55790
     47       0.00000           0.365755            9.95269
     48       0.00000           0.385812           10.49848
     49       0.00000           0.420960           11.45490
     50       0.00000           0.450183           12.25011
     51       0.00000           0.488188           13.28427
     52       0.00000           0.539525           14.68123
     53       0.00000           0.561358           15.27531

  Highest occupied state (VBM) at    -10.37120773 eV
  | Occupation number:      2.00000000

  Lowest unoccupied state (CBM) at    -4.32498159 eV
  | Occupation number:      0.00000000

  Overall HOMO-LUMO gap:      6.04622614 eV.
  Calculating total energy contributions from superposition of free atom densities.

  Total energy components:
  | Sum of eigenvalues            :        -188.84467923 Ha       -5138.72517739 eV
  | XC energy correction          :         -41.79743911 Ha       -1137.36618676 eV
  | XC potential correction       :          53.73214190 Ha        1462.12597321 eV
  | Free-atom electrostatic energy:        -146.84007690 Ha       -3995.72179250 eV
  | Hartree energy correction     :           0.00000000 Ha           0.00000000 eV
  | vdW energy correction         :           0.00000000 Ha           0.00000000 eV
  | Entropy correction            :           0.00000000 Ha           0.00000000 eV
  | ---------------------------
  | Total energy                  :        -323.75005334 Ha       -8809.68718343 eV
  | Total energy, T -> 0          :        -323.75005334 Ha       -8809.68718343 eV  <-- do not rely on this value for anything but (periodic) metals
  | Electronic free energy        :        -323.75005334 Ha       -8809.68718343 eV

  Derived energy quantities:
  | Kinetic energy                :         320.52259255 Ha        8721.86350691 eV
  | Electrostatic energy          :        -602.47520679 Ha      -16394.18450359 eV
  | Energy correction for multipole
  | error in Hartree potential    :           0.00000000 Ha           0.00000000 eV
  | Sum of eigenvalues per atom                           :        -395.28655211 eV
  | Total energy (T->0) per atom                          :        -677.66824488 eV  <-- do not rely on this value for anything but (periodic) metals
  | Electronic free energy per atom                       :        -677.66824488 eV
  Initialize hartree_potential_storage
  Max. number of atoms included in rho_multipole:           13

  End scf initialization - timings             :  max(cpu_time)    wall_clock(cpu1)
  | Time for scf. initialization               :        0.098 s           0.098 s
  | Boundary condition initialization          :        0.000 s           0.000 s
  | Integration                                :        0.040 s           0.041 s
  | Solution of K.-S. eqns.                    :        0.010 s           0.010 s
  | Grid partitioning                          :        0.024 s           0.024 s
  | Preloading free-atom quantities on grid    :        0.003 s           0.003 s
  | Free-atom superposition energy             :        0.005 s           0.005 s
  | Total energy evaluation                    :        0.000 s           0.000 s

  Partial memory accounting:
  | Current value for overall tracked memory usage on task 0  :           0.133 MB
  | Peak value for overall tracked memory usage on task 0     :           0.852 MB after allocating wave
  | Largest tracked array allocation on task 0 so far         :           0.182 MB  when allocating H_times_psi
  Note:  These values currently only include a subset of arrays which are explicitly tracked.
  The "true" memory usage will be greater.
------------------------------------------------------------

------------------------------------------------------------
          Begin self-consistency iteration #    1

  Date     :  20200616, Time     :  062825.560
------------------------------------------------------------
  Evaluating new KS density.
  Integration grid: deviation in total charge (<rho> - N_e) =   0.000000E+00
  Pulay mixing of updated and previous charge densities.

  Evaluating partitioned Hartree potential by multipole expansion.
  | Analytical far-field extrapolation by fixed multipoles:
  | Hartree multipole sum: apparent total charge =  -0.129878E-03
  Summing up the Hartree potential.
  Time summed over all CPUs for potential: real work        0.423 s, elapsed        0.434 s
  | RMS charge density error from multipole expansion :   0.597470E-02

  Integrating Hamiltonian matrix: batch-based integration.
  Time summed over all CPUs for integration: real work        0.520 s, elapsed        0.635 s

  Updating Kohn-Sham eigenvalues and eigenvectors using ELSI and the ELPA eigensolver.
  ELPA settings:
  | ELPA solver          1
  Finished transformation to standard eigenproblem
  | Time :     0.000 s
  Starting ELPA eigensolver
  | Time full => tridiagonal    :     0.002 s
  | Time solve tridiagonal      :     0.000 s
  | Time ev tridiagonal => full :     0.000 s
  Finished solving standard eigenproblem
  | Time :     0.003 s
  Finished back-transformation of eigenvectors
  | Time :     0.000 s

  Obtaining occupation numbers and chemical potential using ELSI.
  | Chemical potential (Fermi level):    -4.59750274eV
  Writing Kohn-Sham eigenvalues.

  State    Occupation    Eigenvalue [Ha]    Eigenvalue [eV]
      1       2.00000         -18.903431         -514.38853
      2       2.00000         -18.837646         -512.59842
      3       2.00000         -14.101540         -383.72242
      4       2.00000         -10.118276         -275.33231
      5       2.00000         -10.064825         -273.87781
      6       2.00000         -10.028506         -272.88954
      7       2.00000          -1.135903          -30.90950
      8       2.00000          -1.037571          -28.23373
      9       2.00000          -0.925292          -25.17846
     10       2.00000          -0.796348          -21.66973
     11       2.00000          -0.700523          -19.06220
     12       2.00000          -0.636345          -17.31584
     13       2.00000          -0.594632          -16.18076
     14       2.00000          -0.553012          -15.04823
     15       2.00000          -0.522459          -14.21684
     16       2.00000          -0.505750          -13.76215
     17       2.00000          -0.494200          -13.44785
     18       2.00000          -0.478398          -13.01787
     19       2.00000          -0.447967          -12.18980
     20       2.00000          -0.432537          -11.76993
     21       2.00000          -0.401743          -10.93199
     22       2.00000          -0.371909          -10.12016
     23       2.00000          -0.348990           -9.49649
     24       2.00000          -0.308655           -8.39893
     25       0.00000          -0.124582           -3.39005
     26       0.00000          -0.064586           -1.75746
     27       0.00000          -0.007464           -0.20309
     28       0.00000           0.006519            0.17740
     29       0.00000           0.028903            0.78650
     30       0.00000           0.039483            1.07439
     31       0.00000           0.058774            1.59931
     32       0.00000           0.076156            2.07231
     33       0.00000           0.104329            2.83893
     34       0.00000           0.132368            3.60193
     35       0.00000           0.146315            3.98143
     36       0.00000           0.155204            4.22330
     37       0.00000           0.188224            5.12183
     38       0.00000           0.229795            6.25303
     39       0.00000           0.246311            6.70245
     40       0.00000           0.262909            7.15411
     41       0.00000           0.286353            7.79207
     42       0.00000           0.307174            8.35863
     43       0.00000           0.330921            9.00482
     44       0.00000           0.343626            9.35054
     45       0.00000           0.350226            9.53013
     46       0.00000           0.387969           10.55717
     47       0.00000           0.401065           10.91353
     48       0.00000           0.423229           11.51666
     49       0.00000           0.461867           12.56803
     50       0.00000           0.486367           13.23473
     51       0.00000           0.524103           14.26156
     52       0.00000           0.573092           15.59464
     53       0.00000           0.592609           16.12571

  Highest occupied state (VBM) at     -8.39892545 eV
  | Occupation number:      2.00000000

  Lowest unoccupied state (CBM) at    -3.39004939 eV
  | Occupation number:      0.00000000

  Overall HOMO-LUMO gap:      5.00887606 eV.

  Total energy components:
  | Sum of eigenvalues            :        -185.49291336 Ha       -5047.51898746 eV
  | XC energy correction          :         -42.12541271 Ha       -1146.29080251 eV
  | XC potential correction       :          54.15866563 Ha        1473.73227441 eV
  | Free-atom electrostatic energy:        -146.84007690 Ha       -3995.72179250 eV
  | Hartree energy correction     :          -3.26468824 Ha         -88.83668705 eV
  | vdW energy correction         :           0.00000000 Ha           0.00000000 eV
  | Entropy correction            :           0.00000000 Ha           0.00000000 eV
  | ---------------------------
  | Total energy                  :        -323.56442558 Ha       -8804.63599511 eV
  | Total energy, T -> 0          :        -323.56442558 Ha       -8804.63599511 eV  <-- do not rely on this value for anything but (periodic) metals
  | Electronic free energy        :        -323.56442558 Ha       -8804.63599511 eV

  Derived energy quantities:
  | Kinetic energy                :         322.31919562 Ha        8770.75156378 eV
  | Electrostatic energy          :        -603.75820849 Ha      -16429.09675639 eV
  | Energy correction for multipole
  | error in Hartree potential    :           0.01242422 Ha           0.33808016 eV
  | Sum of eigenvalues per atom                           :        -388.27069134 eV
  | Total energy (T->0) per atom                          :        -677.27969193 eV  <-- do not rely on this value for anything but (periodic) metals
  | Electronic free energy per atom                       :        -677.27969193 eV

  Self-consistency convergence accuracy:
  | Change of charge density      :  0.5868E+00
  | Change of sum of eigenvalues  :  0.9121E+02 eV
  | Change of total energy        :  0.5051E+01 eV

  End self-consistency iteration #     1       :  max(cpu_time)    wall_clock(cpu1)
  | Time for this iteration                    :        0.084 s           0.084 s
  | Charge density update                      :        0.022 s           0.022 s
  | Density mixing                             :        0.000 s           0.001 s
  | Hartree multipole update                   :        0.001 s           0.001 s
  | Hartree multipole summation                :        0.022 s           0.023 s
  | Integration                                :        0.032 s           0.032 s
  | Solution of K.-S. eqns.                    :        0.004 s           0.004 s
  | Total energy evaluation                    :        0.000 s           0.000 s

  Partial memory accounting:
  | Current value for overall tracked memory usage on task 0  :           0.133 MB
  | Peak value for overall tracked memory usage on task 0     :           0.860 MB after allocating gradient_basis_wave
  | Largest tracked array allocation on task 0 so far         :           0.545 MB  when allocating gradient_basis_wave
  Note:  These values currently only include a subset of arrays which are explicitly tracked.
  The "true" memory usage will be greater.
------------------------------------------------------------

------------------------------------------------------------
          Begin self-consistency iteration #    2

  Date     :  20200616, Time     :  062825.653
------------------------------------------------------------
  Evaluating new KS density.
  Integration grid: deviation in total charge (<rho> - N_e) =   3.552714E-14
  Pulay mixing of updated and previous charge densities.

  Evaluating partitioned Hartree potential by multipole expansion.
  | Analytical far-field extrapolation by fixed multipoles:
  | Hartree multipole sum: apparent total charge =  -0.253673E-03
  Summing up the Hartree potential.
  Time summed over all CPUs for potential: real work        0.423 s, elapsed        0.433 s
  | RMS charge density error from multipole expansion :   0.140958E-01

  Integrating Hamiltonian matrix: batch-based integration.
  Time summed over all CPUs for integration: real work        0.515 s, elapsed        0.549 s

  Updating Kohn-Sham eigenvalues and eigenvectors using ELSI and the ELPA eigensolver.
  ELPA settings:
  | ELPA solver          1
  Finished transformation to standard eigenproblem
  | Time :     0.000 s
  Starting ELPA eigensolver
  | Time full => tridiagonal    :     0.002 s
  | Time solve tridiagonal      :     0.000 s
  | Time ev tridiagonal => full :     0.000 s
  Finished solving standard eigenproblem
  | Time :     0.003 s
  Finished back-transformation of eigenvectors
  | Time :     0.000 s

  Obtaining occupation numbers and chemical potential using ELSI.
  | Chemical potential (Fermi level):    -3.44478769eV
  Highest occupied state (VBM) at     -6.47360186 eV
  | Occupation number:      2.00000000

  Lowest unoccupied state (CBM) at    -2.18758449 eV
  | Occupation number:      0.00000000

  Overall HOMO-LUMO gap:      4.28601738 eV.

  Checking to see if s.c.f. parameters should be adjusted.

  Total energy components:
  | Sum of eigenvalues            :        -181.98950731 Ha       -4952.18645828 eV
  | XC energy correction          :         -42.48100418 Ha       -1155.96693878 eV
  | XC potential correction       :          54.61952511 Ha        1486.27289891 eV
  | Free-atom electrostatic energy:        -146.84007690 Ha       -3995.72179250 eV
  | Hartree energy correction     :          -6.79316124 Ha        -184.85132251 eV
  | vdW energy correction         :           0.00000000 Ha           0.00000000 eV
  | Entropy correction            :           0.00000000 Ha           0.00000000 eV
  | ---------------------------
  | Total energy                  :        -323.48422452 Ha       -8802.45361315 eV
  | Total energy, T -> 0          :        -323.48422452 Ha       -8802.45361315 eV  <-- do not rely on this value for anything but (periodic) metals
  | Electronic free energy        :        -323.48422452 Ha       -8802.45361315 eV

  Derived energy quantities:
  | Kinetic energy                :         323.63136185 Ha        8806.45742350 eV
  | Electrostatic energy          :        -604.63458219 Ha      -16452.94409787 eV
  | Energy correction for multipole
  | error in Hartree potential    :           0.02718172 Ha           0.73965221 eV
  | Sum of eigenvalues per atom                           :        -380.93741987 eV
  | Total energy (T->0) per atom                          :        -677.11181640 eV  <-- do not rely on this value for anything but (periodic) metals
  | Electronic free energy per atom                       :        -677.11181640 eV

  Self-consistency convergence accuracy:
  | Change of charge density      :  0.3675E+00
  | Change of sum of eigenvalues  :  0.9533E+02 eV
  | Change of total energy        :  0.2182E+01 eV

  End self-consistency iteration #     2       :  max(cpu_time)    wall_clock(cpu1)
  | Time for this iteration                    :        0.082 s           0.077 s
  | Charge density update                      :        0.025 s           0.020 s
  | Density mixing                             :        0.001 s           0.001 s
  | Hartree multipole update                   :        0.001 s           0.001 s
  | Hartree multipole summation                :        0.022 s           0.022 s
  | Integration                                :        0.028 s           0.028 s
  | Solution of K.-S. eqns.                    :        0.004 s           0.004 s
  | Total energy evaluation                    :        0.000 s           0.001 s

  Partial memory accounting:
  | Current value for overall tracked memory usage on task 0  :           0.134 MB
  | Peak value for overall tracked memory usage on task 0     :           0.860 MB after allocating gradient_basis_wave
  | Largest tracked array allocation on task 0 so far         :           0.545 MB  when allocating gradient_basis_wave
  Note:  These values currently only include a subset of arrays which are explicitly tracked.
  The "true" memory usage will be greater.
------------------------------------------------------------

------------------------------------------------------------
          Begin self-consistency iteration #    3

  Date     :  20200616, Time     :  062825.736
------------------------------------------------------------
  Evaluating new KS density.
  Integration grid: deviation in total charge (<rho> - N_e) =   7.105427E-15
  Pulay mixing of updated and previous charge densities.

  Evaluating partitioned Hartree potential by multipole expansion.
  | Analytical far-field extrapolation by fixed multipoles:
  | Hartree multipole sum: apparent total charge =  -0.339859E-03
  Summing up the Hartree potential.
  Time summed over all CPUs for potential: real work        0.423 s, elapsed        0.432 s
  | RMS charge density error from multipole expansion :   0.221052E-01

  Integrating Hamiltonian matrix: batch-based integration.
  Time summed over all CPUs for integration: real work        0.514 s, elapsed        0.550 s

  Updating Kohn-Sham eigenvalues and eigenvectors using ELSI and the ELPA eigensolver.
  ELPA settings:
  | ELPA solver          1
  Finished transformation to standard eigenproblem
  | Time :     0.000 s
  Starting ELPA eigensolver
  | Time full => tridiagonal    :     0.002 s
  | Time solve tridiagonal      :     0.000 s
  | Time ev tridiagonal => full :     0.000 s
  Finished solving standard eigenproblem
  | Time :     0.003 s
  Finished back-transformation of eigenvectors
  | Time :     0.000 s

  Obtaining occupation numbers and chemical potential using ELSI.
  | Chemical potential (Fermi level):    -2.80508654eV
  Highest occupied state (VBM) at     -5.80341781 eV
  | Occupation number:      2.00000000

  Lowest unoccupied state (CBM) at    -1.49114854 eV
  | Occupation number:      0.00000000

  Overall HOMO-LUMO gap:      4.31226927 eV.

  Total energy components:
  | Sum of eigenvalues            :        -180.64069327 Ha       -4915.48336092 eV
  | XC energy correction          :         -42.63713560 Ha       -1160.21549074 eV
  | XC potential correction       :          54.81874960 Ha        1491.69407310 eV
  | Free-atom electrostatic energy:        -146.84007690 Ha       -3995.72179250 eV
  | Hartree energy correction     :          -8.17167006 Ha        -222.36245610 eV
  | vdW energy correction         :           0.00000000 Ha           0.00000000 eV
  | Entropy correction            :           0.00000000 Ha           0.00000000 eV
  | ---------------------------
  | Total energy                  :        -323.47082623 Ha       -8802.08902717 eV
  | Total energy, T -> 0          :        -323.47082623 Ha       -8802.08902717 eV  <-- do not rely on this value for anything but (periodic) metals
  | Electronic free energy        :        -323.47082623 Ha       -8802.08902717 eV

  Derived energy quantities:
  | Kinetic energy                :         323.27581146 Ha        8796.78240507 eV
  | Electrostatic energy          :        -604.10950209 Ha      -16438.65594150 eV
  | Energy correction for multipole
  | error in Hartree potential    :           0.03835429 Ha           1.04367328 eV
  | Sum of eigenvalues per atom                           :        -378.11410469 eV
  | Total energy (T->0) per atom                          :        -677.08377132 eV  <-- do not rely on this value for anything but (periodic) metals
  | Electronic free energy per atom                       :        -677.08377132 eV

  Self-consistency convergence accuracy:
  | Change of charge density      :  0.2074E+00
  | Change of sum of eigenvalues  :  0.3670E+02 eV
  | Change of total energy        :  0.3646E+00 eV

  End self-consistency iteration #     3       :  max(cpu_time)    wall_clock(cpu1)
  | Time for this iteration                    :        0.084 s           0.081 s
  | Charge density update                      :        0.028 s           0.025 s
  | Density mixing                             :        0.001 s           0.000 s
  | Hartree multipole update                   :        0.001 s           0.002 s
  | Hartree multipole summation                :        0.022 s           0.022 s
  | Integration                                :        0.028 s           0.028 s
  | Solution of K.-S. eqns.                    :        0.004 s           0.004 s
  | Total energy evaluation                    :        0.000 s           0.000 s

  Partial memory accounting:
  | Current value for overall tracked memory usage on task 0  :           0.134 MB
  | Peak value for overall tracked memory usage on task 0     :           0.861 MB after allocating gradient_basis_wave
  | Largest tracked array allocation on task 0 so far         :           0.545 MB  when allocating gradient_basis_wave
  Note:  These values currently only include a subset of arrays which are explicitly tracked.
  The "true" memory usage will be greater.
------------------------------------------------------------

------------------------------------------------------------
          Begin self-consistency iteration #    4

  Date     :  20200616, Time     :  062825.825
------------------------------------------------------------
  Evaluating new KS density.
  Integration grid: deviation in total charge (<rho> - N_e) =   7.105427E-15
  Pulay mixing of updated and previous charge densities.

  Evaluating partitioned Hartree potential by multipole expansion.
  | Analytical far-field extrapolation by fixed multipoles:
  | Hartree multipole sum: apparent total charge =  -0.369296E-03
  Summing up the Hartree potential.
  Time summed over all CPUs for potential: real work        0.414 s, elapsed        0.428 s
  | RMS charge density error from multipole expansion :   0.256670E-01

  Integrating Hamiltonian matrix: batch-based integration.
  Time summed over all CPUs for integration: real work        0.515 s, elapsed        0.550 s

  Updating Kohn-Sham eigenvalues and eigenvectors using ELSI and the ELPA eigensolver.
  ELPA settings:
  | ELPA solver          1
  Finished transformation to standard eigenproblem
  | Time :     0.000 s
  Starting ELPA eigensolver
  | Time full => tridiagonal    :     0.002 s
  | Time solve tridiagonal      :     0.000 s
  | Time ev tridiagonal => full :     0.000 s
  Finished solving standard eigenproblem
  | Time :     0.003 s
  Finished back-transformation of eigenvectors
  | Time :     0.000 s

  Obtaining occupation numbers and chemical potential using ELSI.
  | Chemical potential (Fermi level):    -2.70358309eV
  Highest occupied state (VBM) at     -5.60631936 eV
  | Occupation number:      2.00000000

  Lowest unoccupied state (CBM) at    -1.39616707 eV
  | Occupation number:      0.00000000

  Overall HOMO-LUMO gap:      4.21015228 eV.

  Total energy components:
  | Sum of eigenvalues            :        -180.51396728 Ha       -4912.03497127 eV
  | XC energy correction          :         -42.67499918 Ha       -1161.24581120 eV
  | XC potential correction       :          54.86625965 Ha        1492.98688744 eV
  | Free-atom electrostatic energy:        -146.84007690 Ha       -3995.72179250 eV
  | Hartree energy correction     :          -8.30696747 Ha        -226.04408593 eV
  | vdW energy correction         :           0.00000000 Ha           0.00000000 eV
  | Entropy correction            :           0.00000000 Ha           0.00000000 eV
  | ---------------------------
  | Total energy                  :        -323.46975118 Ha       -8802.05977346 eV
  | Total energy, T -> 0          :        -323.46975118 Ha       -8802.05977346 eV  <-- do not rely on this value for anything but (periodic) metals
  | Electronic free energy        :        -323.46975118 Ha       -8802.05977346 eV

  Derived energy quantities:
  | Kinetic energy                :         322.86620462 Ha        8785.63643601 eV
  | Electrostatic energy          :        -603.66095662 Ha      -16426.45039828 eV
  | Energy correction for multipole
  | error in Hartree potential    :           0.04274033 Ha           1.16302342 eV
  | Sum of eigenvalues per atom                           :        -377.84884394 eV
  | Total energy (T->0) per atom                          :        -677.08152104 eV  <-- do not rely on this value for anything but (periodic) metals
  | Electronic free energy per atom                       :        -677.08152104 eV

  Self-consistency convergence accuracy:
  | Change of charge density      :  0.6970E-01
  | Change of sum of eigenvalues  :  0.3448E+01 eV
  | Change of total energy        :  0.2925E-01 eV

  End self-consistency iteration #     4       :  max(cpu_time)    wall_clock(cpu1)
  | Time for this iteration                    :        0.080 s           0.076 s
  | Charge density update                      :        0.024 s           0.020 s
  | Density mixing                             :        0.001 s           0.001 s
  | Hartree multipole update                   :        0.001 s           0.001 s
  | Hartree multipole summation                :        0.022 s           0.022 s
  | Integration                                :        0.028 s           0.028 s
  | Solution of K.-S. eqns.                    :        0.004 s           0.004 s
  | Total energy evaluation                    :        0.000 s           0.000 s

  Partial memory accounting:
  | Current value for overall tracked memory usage on task 0  :           0.134 MB
  | Peak value for overall tracked memory usage on task 0     :           0.861 MB after allocating gradient_basis_wave
  | Largest tracked array allocation on task 0 so far         :           0.545 MB  when allocating gradient_basis_wave
  Note:  These values currently only include a subset of arrays which are explicitly tracked.
  The "true" memory usage will be greater.
------------------------------------------------------------

------------------------------------------------------------
          Begin self-consistency iteration #    5

  Date     :  20200616, Time     :  062825.914
------------------------------------------------------------
  Evaluating new KS density.
  Integration grid: deviation in total charge (<rho> - N_e) =   1.421085E-14
  Pulay mixing of updated and previous charge densities.

  Evaluating partitioned Hartree potential by multipole expansion.
  | Analytical far-field extrapolation by fixed multipoles:
  | Hartree multipole sum: apparent total charge =  -0.364071E-03
  Summing up the Hartree potential.
  Time summed over all CPUs for potential: real work        0.414 s, elapsed        0.423 s
  | RMS charge density error from multipole expansion :   0.254120E-01

  Integrating Hamiltonian matrix: batch-based integration.
  Time summed over all CPUs for integration: real work        0.514 s, elapsed        0.548 s

  Updating Kohn-Sham eigenvalues and eigenvectors using ELSI and the ELPA eigensolver.
  ELPA settings:
  | ELPA solver          1
  Finished transformation to standard eigenproblem
  | Time :     0.000 s
  Starting ELPA eigensolver
  | Time full => tridiagonal    :     0.002 s
  | Time solve tridiagonal      :     0.000 s
  | Time ev tridiagonal => full :     0.000 s
  Finished solving standard eigenproblem
  | Time :     0.003 s
  Finished back-transformation of eigenvectors
  | Time :     0.000 s

  Obtaining occupation numbers and chemical potential using ELSI.
  | Chemical potential (Fermi level):    -2.76553873eV
  Highest occupied state (VBM) at     -5.70933784 eV
  | Occupation number:      2.00000000

  Lowest unoccupied state (CBM) at    -1.48685852 eV
  | Occupation number:      0.00000000

  Overall HOMO-LUMO gap:      4.22247932 eV.

  Total energy components:
  | Sum of eigenvalues            :        -180.70243449 Ha       -4917.16342502 eV
  | XC energy correction          :         -42.65123843 Ha       -1160.59924827 eV
  | XC potential correction       :          54.83544279 Ha        1492.14831805 eV
  | Free-atom electrostatic energy:        -146.84007690 Ha       -3995.72179250 eV
  | Hartree energy correction     :          -8.11114666 Ha        -220.71553054 eV
  | vdW energy correction         :           0.00000000 Ha           0.00000000 eV
  | Entropy correction            :           0.00000000 Ha           0.00000000 eV
  | ---------------------------
  | Total energy                  :        -323.46945369 Ha       -8802.05167828 eV
  | Total energy, T -> 0          :        -323.46945369 Ha       -8802.05167828 eV  <-- do not rely on this value for anything but (periodic) metals
  | Electronic free energy        :        -323.46945369 Ha       -8802.05167828 eV

  Derived energy quantities:
  | Kinetic energy                :         322.75599340 Ha        8782.63743602 eV
  | Electrostatic energy          :        -603.57420866 Ha      -16424.08986603 eV
  | Energy correction for multipole
  | error in Hartree potential    :           0.04206644 Ha           1.14468601 eV
  | Sum of eigenvalues per atom                           :        -378.24334039 eV
  | Total energy (T->0) per atom                          :        -677.08089833 eV  <-- do not rely on this value for anything but (periodic) metals
  | Electronic free energy per atom                       :        -677.08089833 eV

  Self-consistency convergence accuracy:
  | Change of charge density      :  0.2117E-01
  | Change of sum of eigenvalues  : -0.5128E+01 eV
  | Change of total energy        :  0.8095E-02 eV

  End self-consistency iteration #     5       :  max(cpu_time)    wall_clock(cpu1)
  | Time for this iteration                    :        0.086 s           0.076 s
  | Charge density update                      :        0.029 s           0.020 s
  | Density mixing                             :        0.001 s           0.001 s
  | Hartree multipole update                   :        0.001 s           0.001 s
  | Hartree multipole summation                :        0.022 s           0.022 s
  | Integration                                :        0.028 s           0.028 s
  | Solution of K.-S. eqns.                    :        0.004 s           0.004 s
  | Total energy evaluation                    :        0.000 s           0.000 s

  Partial memory accounting:
  | Current value for overall tracked memory usage on task 0  :           0.134 MB
  | Peak value for overall tracked memory usage on task 0     :           0.861 MB after allocating gradient_basis_wave
  | Largest tracked array allocation on task 0 so far         :           0.545 MB  when allocating gradient_basis_wave
  Note:  These values currently only include a subset of arrays which are explicitly tracked.
  The "true" memory usage will be greater.
------------------------------------------------------------

------------------------------------------------------------
          Begin self-consistency iteration #    6

  Date     :  20200616, Time     :  062826.000
------------------------------------------------------------
  Evaluating new KS density.
  Integration grid: deviation in total charge (<rho> - N_e) =   2.131628E-14
  Pulay mixing of updated and previous charge densities.

[...]
  |   Hirshfeld dipole moment :      0.05695085
  |   Hirshfeld second moments:      0.01883739      -0.03112655      -0.01678379
  |                                 -0.03112655      -0.02470639       0.00581288
  |                                 -0.01678379       0.00581288      -0.01789229
  ----------------------------------------------------------------------
  | Atom    12: O
  |   Hirshfeld charge        :     -0.15763250
  |   Free atom volume        :     23.61338643
  |   Hirshfeld volume        :     21.01052473
  |   Hirshfeld dipole vector :      0.00367877       0.04374028       0.00467094
  |   Hirshfeld dipole moment :      0.04414253
  |   Hirshfeld second moments:      0.10214145      -0.01131366       0.02045648
  |                                 -0.01131366       0.02711881       0.00925986
  |                                  0.02045648       0.00925986       0.03452931
  ----------------------------------------------------------------------
  | Atom    13: H
  |   Hirshfeld charge        :      0.17580704
  |   Free atom volume        :      9.95071624
  |   Hirshfeld volume        :      6.19644710
  |   Hirshfeld dipole vector :     -0.11228005       0.04506884      -0.02228718
  |   Hirshfeld dipole moment :      0.12302328
  |   Hirshfeld second moments:      0.12313290      -0.00072842       0.00224463
  |                                 -0.00072842       0.10490470       0.01429373
  |                                  0.00224463       0.01429373       0.11235807
  ----------------------------------------------------------------------


  Total energy components:
  | Sum of eigenvalues            :        -180.69930682 Ha       -4917.07831672 eV
  | XC energy correction          :         -42.64797190 Ha       -1160.51036149 eV
  | XC potential correction       :          54.83126792 Ha        1492.03471408 eV
  | Free-atom electrostatic energy:        -146.84007690 Ha       -3995.72179250 eV
  | Hartree energy correction     :          -8.11329453 Ha        -220.77397689 eV
  | vdW energy correction         :          -0.00329397 Ha          -0.08963336 eV
  | Entropy correction            :           0.00000000 Ha           0.00000000 eV
  | ---------------------------
  | Total energy                  :        -323.47267618 Ha       -8802.13936688 eV
  | Total energy, T -> 0          :        -323.47267618 Ha       -8802.13936688 eV  <-- do not rely on this value for anything but (periodic) metals
  | Electronic free energy        :        -323.47267618 Ha       -8802.13936688 eV

  Derived energy quantities:
  | Kinetic energy                :         322.64262476 Ha        8779.55251841 eV
  | Electrostatic energy          :        -603.46403508 Ha      -16421.09189045 eV
  | Energy correction for multipole
  | error in Hartree potential    :           0.04246284 Ha           1.15547275 eV
  | Sum of eigenvalues per atom                           :        -378.23679359 eV
  | Total energy (T->0) per atom                          :        -677.08764361 eV  <-- do not rely on this value for anything but (periodic) metals
  | Electronic free energy per atom                       :        -677.08764361 eV

  atomic forces [eV/Ang]:
  -----------------------
  atom #    1
   Hellmann-Feynman              :  0.112854E-02 -0.695608E-01  0.982448E+00
   Ionic forces                  :  0.000000E+00  0.000000E+00  0.000000E+00
   Multipole                     :  0.295020E-01  0.111821E+00 -0.158141E+00
   Pulay + GGA                   : -0.711042E+00  0.566332E-01 -0.142901E+01
   Van der Waals                 :  0.376430E-02  0.283756E-02 -0.116636E-02
   ----------------------------------------------------------------
   Total forces(   1)            : -0.676648E+00  0.101731E+00 -0.605864E+00
  atom #    2
   Hellmann-Feynman              :  0.189834E+00 -0.558477E-01 -0.127068E+00
   Ionic forces                  :  0.000000E+00  0.000000E+00  0.000000E+00
   Multipole                     :  0.196706E+00 -0.112996E-01 -0.177020E-02
   Pulay + GGA                   : -0.148720E+00  0.295064E-01  0.424548E-01
   Van der Waals                 : -0.886914E-03  0.121689E-02 -0.370286E-02
   ----------------------------------------------------------------
   Total forces(   2)            :  0.236934E+00 -0.364240E-01 -0.900865E-01
  atom #    3
   Hellmann-Feynman              : -0.136970E+01  0.116758E+02 -0.208398E+01
   Ionic forces                  :  0.000000E+00  0.000000E+00  0.000000E+00
   Multipole                     : -0.204060E+00  0.127737E+00 -0.987327E+00
   Pulay + GGA                   :  0.227048E+01 -0.111493E+02  0.356540E+01
   Van der Waals                 :  0.371008E-02  0.557130E-02  0.602106E-03
   ----------------------------------------------------------------
   Total forces(   3)            :  0.700430E+00  0.659744E+00  0.494689E+00
  atom #    4
   Hellmann-Feynman              : -0.225314E+00 -0.418680E+00 -0.150418E+00
   Ionic forces                  :  0.000000E+00  0.000000E+00  0.000000E+00
   Multipole                     :  0.326243E-01 -0.442119E-01 -0.102520E+00
   Pulay + GGA                   : -0.141832E+00  0.165720E+00  0.102458E+00
   Van der Waals                 : -0.334466E-02  0.361980E-02  0.166466E-03
   ----------------------------------------------------------------
   Total forces(   4)            : -0.337867E+00 -0.293553E+00 -0.150313E+00
  atom #    5
   Hellmann-Feynman              : -0.268772E-01 -0.152395E+00 -0.382907E+00
   Ionic forces                  :  0.000000E+00  0.000000E+00  0.000000E+00
   Multipole                     : -0.631364E-01 -0.555206E-01 -0.776678E-01
   Pulay + GGA                   :  0.218435E+00  0.217810E+00 -0.907567E-01
   Van der Waals                 : -0.294888E-03  0.843653E-03 -0.223622E-02
   ----------------------------------------------------------------
   Total forces(   5)            :  0.128126E+00  0.107386E-01 -0.553568E+00
  atom #    6
   Hellmann-Feynman              : -0.545989E+00 -0.160605E+00  0.288133E+00
   Ionic forces                  :  0.000000E+00  0.000000E+00  0.000000E+00
   Multipole                     : -0.169213E+00  0.679067E+00  0.270937E+00
   Pulay + GGA                   :  0.703745E+00 -0.626373E+00 -0.244682E+00
   Van der Waals                 : -0.160661E-02  0.464600E-02 -0.352532E-02
   ----------------------------------------------------------------
   Total forces(   6)            : -0.130636E-01 -0.103266E+00  0.310863E+00
  atom #    7
   Hellmann-Feynman              :  0.635662E-01  0.105081E+00  0.779082E-01
   Ionic forces                  :  0.000000E+00  0.000000E+00  0.000000E+00
   Multipole                     :  0.558196E-01  0.129522E+00  0.692520E-01
   Pulay + GGA                   : -0.980167E-01 -0.754604E-01 -0.321572E-01
   Van der Waals                 : -0.320430E-02 -0.646212E-02 -0.188103E-02
   ----------------------------------------------------------------
   Total forces(   7)            :  0.181649E-01  0.152681E+00  0.113122E+00
  atom #    8
   Hellmann-Feynman              : -0.462082E-02 -0.307799E-01 -0.178277E+00
   Ionic forces                  :  0.000000E+00  0.000000E+00  0.000000E+00
   Multipole                     : -0.849098E-01  0.124461E+00 -0.104701E-01
   Pulay + GGA                   :  0.902739E-01 -0.840896E-01  0.138570E-01
   Van der Waals                 :  0.188736E-02 -0.749897E-02  0.808988E-03
   ----------------------------------------------------------------
   Total forces(   8)            :  0.263055E-02  0.209232E-02 -0.174082E+00
  atom #    9
   Hellmann-Feynman              : -0.113008E-01  0.206650E-01  0.216328E+00
   Ionic forces                  :  0.000000E+00  0.000000E+00  0.000000E+00
   Multipole                     : -0.840312E-01  0.439760E-01  0.113308E+00
   Pulay + GGA                   :  0.891848E-01  0.145982E-01 -0.594154E-01
   Van der Waals                 : -0.143142E-02  0.148941E-02 -0.740679E-02
   ----------------------------------------------------------------
   Total forces(   9)            : -0.757853E-02  0.807286E-01  0.262814E+00
  atom #   10
   Hellmann-Feynman              :  0.265207E+01  0.570122E+01  0.264683E+01
   Ionic forces                  :  0.000000E+00  0.000000E+00  0.000000E+00
   Multipole                     :  0.110555E+00 -0.862885E-01  0.163793E+00
   Pulay + GGA                   : -0.845594E+00 -0.370415E+01 -0.444488E+00
   Van der Waals                 :  0.464882E-03 -0.257292E-02  0.892211E-02
   ----------------------------------------------------------------
   Total forces(  10)            :  0.191750E+01  0.190820E+01  0.237506E+01
  atom #   11
   Hellmann-Feynman              :  0.227791E+01 -0.165812E+01  0.143694E+02
   Ionic forces                  :  0.000000E+00  0.000000E+00  0.000000E+00
   Multipole                     : -0.123364E-01 -0.471251E+00  0.779549E+00
   Pulay + GGA                   : -0.142242E+01  0.270097E+01 -0.142077E+02
   Van der Waals                 :  0.231779E-02 -0.111563E-01  0.589639E-02
   ----------------------------------------------------------------
   Total forces(  11)            :  0.845466E+00  0.560450E+00  0.947071E+00
  atom #   12
   Hellmann-Feynman              :  0.190156E+01 -0.148770E+02 -0.436506E+01
   Ionic forces                  :  0.000000E+00  0.000000E+00  0.000000E+00
   Multipole                     : -0.617562E+00 -0.159708E+01 -0.222837E+00
   Pulay + GGA                   : -0.345768E+01  0.141412E+02  0.259049E+01
   Van der Waals                 :  0.318174E-04  0.343770E-02  0.568445E-02
   ----------------------------------------------------------------
   Total forces(  12)            : -0.217365E+01 -0.232950E+01 -0.199172E+01
  atom #   13
   Hellmann-Feynman              : -0.890489E+00 -0.448623E+00 -0.111230E+01
   Ionic forces                  :  0.000000E+00  0.000000E+00  0.000000E+00
   Multipole                     : -0.910251E-01  0.180693E-01  0.169212E-01
   Pulay + GGA                   :  0.336912E+00 -0.289407E+00  0.154709E+00
   Van der Waals                 : -0.140744E-02  0.402802E-02 -0.216194E-02
   ----------------------------------------------------------------
   Total forces(  13)            : -0.646010E+00 -0.715932E+00 -0.942827E+00

  Timings for VdW correction (Tkatchenko-Scheffler 2009 or later):
  | CPU time:        0.009 s, Wall clock time:        0.008 s.
  Removing unitary transformations (pure translations, rotations) from forces on atoms.
  Atomic forces before filtering:
  | Net force on center of mass :  -0.556569E-02 -0.230071E-02 -0.484005E-02 eV/A
  | Net torque on center of mass:   0.525940E-03 -0.984020E-03 -0.144942E-01 eV
  Atomic forces after filtering:
  | Net force on center of mass :   0.178406E-15  0.892031E-16 -0.356812E-15 eV/A
  | Net torque on center of mass:   0.566451E-15 -0.132172E-14  0.566451E-15 eV

  Energy and forces in a compact form:
  | Total energy uncorrected      :         -0.880213936688155E+04 eV
  | Total energy corrected        :         -0.880213936688155E+04 eV  <-- do not rely on this value for anything but (periodic) metals
  | Electronic free energy        :         -0.880213936688155E+04 eV
  Total atomic forces (unitary forces cleaned) [eV/Ang]:
  |   1         -0.676294212059455E+00          0.102150330360137E+00         -0.605539663884998E+00
  |   2          0.237286972758752E+00         -0.354473032557520E-01         -0.898718107846045E-01
  |   3          0.700641641086758E+00          0.659917456396396E+00          0.495061557856489E+00
  |   4         -0.337509514365131E+00         -0.293008422622851E+00         -0.150013275125477E+00
  |   5          0.128617203509018E+00          0.104789898433787E-01         -0.553109142061972E+00
  |   6         -0.132807675898441E-01         -0.103098907142571E+00          0.311236416689145E+00
  |   7          0.176622779774578E-01          0.153278870950782E+00          0.113410197801855E+00
  |   8          0.204582803341931E-02          0.193051572035223E-02         -0.173643780599868E+00
  |   9         -0.756686728398146E-02          0.806046465502276E-01          0.263244952341540E+00
  |  10          0.191858573708967E+01          0.190842275290640E+01          0.237542706569511E+01
  |  11          0.846782444061010E+00          0.560759295192740E+00          0.947418589853887E+00
  |  12         -0.217217118313202E+01         -0.232956846873497E+01         -0.199129855830060E+01
  |  13         -0.644799560085651E+00         -0.716419756164268E+00         -0.942322549480501E+00

  ------------------------------------ 
  Start decomposition of the XC Energy 
  ------------------------------------ 
  X and C from original XC functional choice 
  Hartree-Fock Energy :          0.000000000 Ha              0.000000000 eV
  X Energy            :        -41.045637452 Ha          -1116.908622743 eV
  C Energy            :         -1.602334447 Ha            -43.601738742 eV
  Total XC Energy     :        -42.647971899 Ha          -1160.510361485 eV
  ------------------------------------ 
  LDA X and C from self-consistent density 
  X Energy LDA        :        -37.266068896 Ha          -1014.061329522 eV
  C Energy LDA        :         -3.139367548 Ha            -85.426537433 eV
  ------------------------------------ 
  End decomposition of the XC Energy 
  ------------------------------------ 

------------------------------------------------------------

------------------------------------------------------------------------------
  Final output of selected total energy values:

  The following output summarizes some interesting total energy values
  at the end of a run (AFTER all relaxation, molecular dynamics, etc.).

  | Total energy of the DFT / Hartree-Fock s.c.f. calculation      :          -8802.139366882 eV
  | Final zero-broadening corrected energy (caution - metals only) :          -8802.139366882 eV
  | For reference only, the value of 1 Hartree used in FHI-aims is :             27.211384500 eV

  Before relying on these values, please be sure to understand exactly which
  total energy value is referred to by a given number. Different objects may
  all carry the same name 'total energy'. Definitions:

  Total energy of the DFT / Hartree-Fock s.c.f. calculation:
  | Note that this energy does not include ANY quantities calculated after the
  | s.c.f. cycle, in particular not ANY RPA, MP2, etc. many-body perturbation terms.

  Final zero-broadening corrected energy:
  | For metallic systems only, a broadening of the occupation numbers at the Fermi
  | level can be extrapolated back to zero broadening by an electron-gas inspired
  | formula. For all systems that are not real metals, this value can be
  | meaningless and should be avoided.

------------------------------------------------------------------------------
  Methods described in the following list of references were used in this FHI-aims run.
  If you publish the results, please make sure to cite these reference if they apply.
  FHI-aims is an academic code, and for our developers (often, Ph.D. students
  and postdocs), scientific credit in the community is essential.
  Thank you for helping us!

  For any use of FHI-aims, please cite:

    Volker Blum, Ralf Gehrke, Felix Hanke, Paula Havu, Ville Havu,
    Xinguo Ren, Karsten Reuter, and Matthias Scheffler
    'Ab initio molecular simulations with numeric atom-centered orbitals'
    Computer Physics Communications 180, 2175-2196 (2009)
    http://dx.doi.org/10.1016/j.cpc.2009.06.022


  The scalable eigensolver library ELPA was used in your run.
  ELPA is essential especially for large systems on hundreds or thousands of CPUs.
  For ELPA, please cite:

    Andreas Marek, Volker Blum, Rainer Johanni, Ville Havu, Bruno Lang,
    Thomas Auckenthaler, Alexander Heinecke, Hans-Joachim Bungartz, and Hermann Lederer,
    'The ELPA Library - Scalable Parallel Eigenvalue Solutions
    for Electronic Structure Theory and Computational Science'
    The Journal of Physics: Condensed Matter 26, 213201 (2014).
    http://dx.doi.org/10.1088/0953-8984/26/21/213201


  The ELSI infrastructure was used in your run to solve the Kohn-Sham electronic structure.
  Please check out http://elsi-interchange.org to learn more.
  If scalability is important for your project, please acknowledge ELSI by citing:

    V. W-z. Yu, F. Corsetti, A. Garcia, W. P. Huhn, M. Jacquelin, W. Jia,
    B. Lange, L. Lin, J. Lu, W. Mi, A. Seifitokaldani, A. Vazquez-Mayagoitia,
    C. Yang, H. Yang, and V. Blum
    'ELSI: A unified software interface for Kohn-Sham electronic structure solvers'
    Computer Physics Communications 222, 267-285 (2018).
    http://dx.doi.org/10.1016/j.cpc.2017.09.007


  For the real-space grid partitioning and parallelization used in this calculation, please cite:

    Ville Havu, Volker Blum, Paula Havu, and Matthias Scheffler,
    'Efficient O(N) integration for all-electron electronic structure calculation'
    'using numerically tabulated basis functions'
    Journal of Computational Physics 228, 8367-8379 (2009).
    http://dx.doi.org/10.1016/j.jcp.2009.08.008

  Of course, there are many other important community references, e.g., those cited in the
  above references. Our list is limited to references that describe implementations in the
  FHI-aims code. The reason is purely practical (length of this list) - please credit others as well.

------------------------------------------------------------
          Leaving FHI-aims.
          Date     :  20200616, Time     :  062827.114

          Computational steps:
          | Number of self-consistency cycles          :           16
          | Number of SCF (re)initializations          :            1

          Detailed time accounting                     :  max(cpu_time)    wall_clock(cpu1)
          | Total time                                 :        1.783 s           1.861 s
          | Preparation time                           :        0.163 s           0.163 s
          | Boundary condition initalization           :        0.000 s           0.000 s
          | Grid partitioning                          :        0.024 s           0.024 s
          | Preloading free-atom quantities on grid    :        0.003 s           0.003 s
          | Free-atom superposition energy             :        0.005 s           0.005 s
          | Total time for integrations                :        0.489 s           0.492 s
          | Total time for solution of K.-S. equations :        0.077 s           0.074 s
          | Total time for density & force components  :        0.485 s           0.400 s
          | Total time for mixing                      :        0.016 s           0.015 s
          | Total time for Hartree multipole update    :        0.020 s           0.018 s
          | Total time for Hartree multipole sum       :        0.434 s           0.435 s
          | Total time for total energy evaluation     :        0.003 s           0.003 s
          | Total time for vdW correction              :        0.009 s           0.008 s

          Partial memory accounting:
          | Residual value for overall tracked memory usage across tasks :           0.000 MB (should be 0.000 MB)
          | Peak values for overall tracked memory usage (after allocating hessian_basis_wave):
          |   Minimum:        2.103 MB (on task 20)
          |   Maximum:        2.134 MB (on task  1)
          |   Average:        2.114 MB
          | Largest tracked array allocation (hessian_basis_wave):
          |   Minimum:        1.073 MB (on task  2)
          |   Maximum:        1.091 MB (on task  1)
          |   Average:        1.083 MB
          Note:  These values currently only include a subset of arrays which are explicitly tracked.
          The "true" memory usage will be greater.

          Have a nice day.
------------------------------------------------------------
