  MPI-parallelism will be employed.
------------------------------------------------------------
          Invoking FHI-aims ...
          Version 171221_1
          Compiled on 2019/09/09 at 14:39:39 on host puhti-login2.bullx.

          When using FHI-aims, please cite the following reference:

          Volker Blum, Ralf Gehrke, Felix Hanke, Paula Havu,
          Ville Havu, Xinguo Ren, Karsten Reuter, and Matthias Scheffler,
          'Ab Initio Molecular Simulations with Numeric Atom-Centered Orbitals',
          Computer Physics Communications 180, 2175-2196 (2009)

          For any questions about FHI-aims, please visit the aimsclub website
          with its forums and wiki. Contributions to both the forums and the
          wiki are warmly encouraged - they are for you, and everyone is welcome there.

------------------------------------------------------------



  Date     :  20200710, Time     :  145253.677
  Time zero on CPU 1             :   0.119830000000000E-01  s.
  Internal wall clock time zero  :           363624773.677  s.

  FHI-aims created a unique identifier for this run for later identification
  aims_uuid : 68D505B1-289F-4372-AE2D-27A39D2B00A0

  Using        1 parallel tasks.
  Task        0 on host r18c46.bullx reporting.

  Performing system and environment tests:
  | Environment variable OMP_NUM_THREADS correctly set to 1.
  | Stacksize not measured: no C compiler
  | Checking for scalapack...
  | Testing pdtran()...
  | All pdtran() tests passed.

  Obtaining array dimensions for all initial allocations:
  
  -----------------------------------------------------------------------
  Parsing control.in (first pass over file, find array dimensions only).
  The contents of control.in will be repeated verbatim below
  unless switched off by setting 'verbatim_writeout .false.' .
  in the first line of control.in .
  -----------------------------------------------------------------------
  
  #########################################################################################
  #
  #  Volker Blum, FHI 2009 : Test run input file control.in for simple H2O
  #
  #########################################################################################
  #
  #  Physical model
  #
    xc                 pbe
    vdw_correction_hirshfeld
    spin               none
    relativistic       none
    charge             0.
  #
  #  SCF convergence
  #
    occupation_type    gaussian 0.01
    mixer              pulay
      n_max_pulay        10
      charge_mix_param   0.2
    sc_accuracy_rho    1E-5
    sc_accuracy_eev    1E-3
    sc_accuracy_etot   1E-6
    sc_accuracy_forces 1E-4
    sc_iter_limit      100
  #
  #  Relaxation
  #
  #  relax_geometry   bfgs 1.e-3
  #
  ################################################################################
  #
  #  FHI-aims code project
  #  VB, Fritz-Haber Institut, 2009
  #
  #  Suggested "light" defaults for H atom (to be pasted into control.in file)
  #  Be sure to double-check any results obtained with these settings for post-processing,
  #  e.g., with the "tight" defaults and larger basis sets.
  #
  ################################################################################
    species        H
  #     global species definitions
      nucleus             1
      mass                1.00794
  #
      l_hartree           4
  #
      cut_pot             3.5  1.5  1.0
      basis_dep_cutoff    1e-4
  #
      radial_base         24 5.0
      radial_multiplier   1
      angular_grids       specified
        division   0.2421   50
        division   0.3822  110
        division   0.4799  194
        division   0.5341  302
  #      division   0.5626  434
  #      division   0.5922  590
  #      division   0.6542  770
  #      division   0.6868 1202
  #      outer_grid  770
        outer_grid  302
  ################################################################################
  #
  #  Definition of "minimal" basis
  #
  ################################################################################
  #     valence basis states
      valence      1  s   1.
  #     ion occupancy
      ion_occ      1  s   0.5
  ################################################################################
  #
  #  Suggested additional basis functions. For production calculations,
  #  uncomment them one after another (the most important basis functions are
  #  listed first).
  #
  #  Basis constructed for dimers: 0.5 A, 0.7 A, 1.0 A, 1.5 A, 2.5 A
  #
  ################################################################################
  #  "First tier" - improvements: -1014.90 meV to -62.69 meV
       hydro 2 s 2.1
       hydro 2 p 3.5
  #  "Second tier" - improvements: -12.89 meV to -1.83 meV
  #     hydro 1 s 0.85
  #     hydro 2 p 3.7
  #     hydro 2 s 1.2
  #     hydro 3 d 7
  #  "Third tier" - improvements: -0.25 meV to -0.12 meV
  #     hydro 4 f 11.2
  #     hydro 3 p 4.8
  #     hydro 4 d 9
  #     hydro 3 s 3.2
  ################################################################################
  #
  #  FHI-aims code project
  #  VB, Fritz-Haber Institut, 2009
  #
  #  Suggested "light" defaults for C atom (to be pasted into control.in file)
  #  Be sure to double-check any results obtained with these settings for post-processing,
  #  e.g., with the "tight" defaults and larger basis sets.
  #
  ################################################################################
    species        C
  #     global species definitions
      nucleus             6
      mass                12.0107
  #
      l_hartree           4
  #
      cut_pot             3.5  1.5  1.0
      basis_dep_cutoff    1e-4
  #
      radial_base         34 5.0
      radial_multiplier   1
      angular_grids specified
        division   0.3326   50
        division   0.5710  110
        division   0.7727  194
        division   0.8772  302
  #      division   0.9334  434
  #      division   0.9625  590
  #      division   0.9924  770
  #      division   1.0230  974
  #      division   1.4589 1202
  #     outer_grid  974
       outer_grid 302
  ################################################################################
  #
  #  Definition of "minimal" basis
  #
  ################################################################################
  #     valence basis states
      valence      2  s   2.
      valence      2  p   2.
  #     ion occupancy
      ion_occ      2  s   1.
      ion_occ      2  p   1.
  ################################################################################
  #
  #  Suggested additional basis functions. For production calculations,
  #  uncomment them one after another (the most important basis functions are
  #  listed first).
  #
  #  Constructed for dimers: 1.0 A, 1.25 A, 1.5 A, 2.0 A, 3.0 A
  #
  ################################################################################
  #  "First tier" - improvements: -1214.57 meV to -155.61 meV
       hydro 2 p 1.7
       hydro 3 d 6
       hydro 2 s 4.9
  #  "Second tier" - improvements: -67.75 meV to -5.23 meV
  #     hydro 4 f 9.8
  #     hydro 3 p 5.2
  #     hydro 3 s 4.3
  #     hydro 5 g 14.4
  #     hydro 3 d 6.2
  #  "Third tier" - improvements: -2.43 meV to -0.60 meV
  #     hydro 2 p 5.6
  #     hydro 2 s 1.4
  #     hydro 3 d 4.9
  #     hydro 4 f 11.2
  #  "Fourth tier" - improvements: -0.39 meV to -0.18 meV
  #     hydro 2 p 2.1
  #     hydro 5 g 16.4
  #     hydro 4 d 13.2
  #     hydro 3 s 13.6
  #     hydro 4 f 17.6
  #  Further basis functions - improvements: -0.08 meV and below
  #     hydro 3 s 2
  #     hydro 3 p 6
  #     hydro 4 d 20
  ################################################################################
  #
  #  FHI-aims code project
  #  VB, Fritz-Haber Institut, 2009
  #
  #  Suggested "light" defaults for N atom (to be pasted into control.in file)
  #  Be sure to double-check any results obtained with these settings for post-processing,
  #  e.g., with the "tight" defaults and larger basis sets.
  #
  ################################################################################
    species        N
  #     global species definitions
      nucleus             7
      mass                14.0067
  #
      l_hartree           4
  #
      cut_pot             3.5  1.5  1.0
      basis_dep_cutoff    1e-4
  #
      radial_base         35 5.0
      radial_multiplier   1
      angular_grids       specified
        division   0.2599   50
        division   0.4601  110
        division   0.5885  194
        division   0.6503  302
  #      division   0.6939  434
  #      division   0.7396  590
  #      division   0.7632  770
  #      division   0.8122  974
  #      division   1.1604 1202
  #      outer_grid  974
        outer_grid  302
  ################################################################################
  #
  #  Definition of "minimal" basis
  #
  ################################################################################
  #     valence basis states
      valence      2  s   2.
      valence      2  p   3.
  #     ion occupancy
      ion_occ      2  s   1.
      ion_occ      2  p   2.
  ################################################################################
  #
  #  Suggested additional basis functions. For production calculations,
  #  uncomment them one after another (the most important basis functions are
  #  listed first).
  #
  #  Constructed for dimers: 1.0 A, 1.1 A, 1.5 A, 2.0 A, 3.0 A
  #
  ################################################################################
  #  "First tier" - improvements: -1193.42 meV to -220.60 meV
       hydro 2 p 1.8
       hydro 3 d 6.8
       hydro 3 s 5.8
  #  "Second tier" - improvements: -80.21 meV to -6.86 meV
  #     hydro 4 f 10.8
  #     hydro 3 p 5.8
  #     hydro 1 s 0.8
  #     hydro 5 g 16
  #     hydro 3 d 4.9
  #  "Third tier" - improvements: -4.29 meV to -0.53 meV
  #     hydro 3 s 16
  #     ionic 2 p auto
  #     hydro 3 d 6.6
  #     hydro 4 f 11.6
  #  "Fourth tier" - improvements: -0.75 meV to -0.25 meV
  #     hydro 2 p 4.5
  #     hydro 2 s 2.4
  #     hydro 5 g 14.4
  #     hydro 4 d 14.4
  #     hydro 4 f 16.8
  # Further basis functions - -0.21 meV and below
  #     hydro 3 p 14.8
  #     hydro 3 s 4.4
  #     hydro 3 d 19.6
  #     hydro 5 g 12.8
  ################################################################################
  #
  #  FHI-aims code project
  #  VB, Fritz-Haber Institut, 2009
  #
  #  Suggested "light" defaults for O atom (to be pasted into control.in file)
  #  Be sure to double-check any results obtained with these settings for post-processing,
  #  e.g., with the "tight" defaults and larger basis sets.
  #
  ################################################################################
    species        O
  #     global species definitions
      nucleus             8
      mass                15.9994
  #
      l_hartree           4
  #
      cut_pot             3.5  1.5  1.0
      basis_dep_cutoff    1e-4
  #
      radial_base         36 5.0
      radial_multiplier   1
       angular_grids specified
        division   0.2659   50
        division   0.4451  110
        division   0.6052  194
        division   0.7543  302
  #      division   0.8014  434
  #      division   0.8507  590
  #      division   0.8762  770
  #      division   0.9023  974
  #      division   1.2339 1202
  #      outer_grid 974
        outer_grid 302
  ################################################################################
  #
  #  Definition of "minimal" basis
  #
  ################################################################################
  #     valence basis states
      valence      2  s   2.
      valence      2  p   4.
  #     ion occupancy
      ion_occ      2  s   1.
      ion_occ      2  p   3.
  ################################################################################
  #
  #  Suggested additional basis functions. For production calculations,
  #  uncomment them one after another (the most important basis functions are
  #  listed first).
  #
  #  Constructed for dimers: 1.0 A, 1.208 A, 1.5 A, 2.0 A, 3.0 A
  #
  ################################################################################
  #  "First tier" - improvements: -699.05 meV to -159.38 meV
       hydro 2 p 1.8
       hydro 3 d 7.6
       hydro 3 s 6.4
  #  "Second tier" - improvements: -49.91 meV to -5.39 meV
  #     hydro 4 f 11.6
  #     hydro 3 p 6.2
  #     hydro 3 d 5.6
  #     hydro 5 g 17.6
  #     hydro 1 s 0.75
  #  "Third tier" - improvements: -2.83 meV to -0.50 meV
  #     ionic 2 p auto
  #     hydro 4 f 10.8
  #     hydro 4 d 4.7
  #     hydro 2 s 6.8
  #  "Fourth tier" - improvements: -0.40 meV to -0.12 meV
  #     hydro 3 p 5
  #     hydro 3 s 3.3
  #     hydro 5 g 15.6
  #     hydro 4 f 17.6
  #     hydro 4 d 14
  # Further basis functions - -0.08 meV and below
  #     hydro 3 s 2.1
  #     hydro 4 d 11.6
  #     hydro 3 p 16
  #     hydro 2 s 17.2
  
  -----------------------------------------------------------------------
  Completed first pass over input file control.in .
  -----------------------------------------------------------------------
  
  
  -----------------------------------------------------------------------
  Parsing geometry.in (first pass over file, find array dimensions only).
  The contents of geometry.in will be repeated verbatim below
  unless switched off by setting 'verbatim_writeout .false.' .
  in the first line of geometry.in .
  -----------------------------------------------------------------------
  
  atom  0.00000 0.00000 0.00000 C
  atom  1.09300 0.00000 0.00000 H
  atom  -0.47961 0.00000 -1.41207 N
  atom  -0.21280 -0.88346 -1.84813 H
  atom  -1.49247 0.10119 -1.41325 H
  atom  -0.49584 1.26211 0.72868 C
  atom  -1.58789 1.28919 0.74431 H
  atom  -0.13407 1.27425 1.75947 H
  atom  -0.13407 2.16087 0.22380 H
  atom  -0.39425 -1.28861 0.74398 C
  atom  -0.10189 -1.56493 1.88303 O
  atom  -1.10210 -2.13717 0.06896 O
  atom  -1.97791 -1.74344 0.22031 H
  
  -----------------------------------------------------------------------
  Completed first pass over input file geometry.in .
  -----------------------------------------------------------------------
  

  Basic array size parameters:
  | Number of species                 :        4
  | Number of atoms                   :       13
  | Max. basis fn. angular momentum   :        2
  | Max. atomic/ionic basis occupied n:        2
  | Max. number of basis fn. types    :        2
  | Max. radial fns per species/type  :        3
  | Max. logarithmic grid size        :     1301
  | Max. radial integration grid size :       36
  | Max. angular integration grid size:      302
  | Max. angular grid division number :        8
  | Radial grid for Hartree potential :     1301
  | Number of spin channels           :        1

------------------------------------------------------------
          Reading file control.in.
------------------------------------------------------------
  XC: Using PBE gradient-corrected functionals.
  Spin treatment: No spin polarisation.
  Non-relativistic treatment of kinetic energy.
  Charge =   0.000000E+00: Neutral system requested explicitly.
  Occupation type: Gaussian broadening, width =   0.100000E-01 eV.
  Using pulay charge density mixing.
  Pulay mixing - number of memorized iterations:   10
  Charge density mixing - mixing parameter:     0.2000
  Convergence accuracy of self-consistent charge density:  0.1000E-04
  Convergence accuracy of sum of eigenvalues:  0.1000E-02
  Convergence accuracy of total energy:  0.1000E-05
  Convergence accuracy of forces:  0.1000E-03
  Maximum number of s.-c. iterations  :   100
 
  Reading configuration options for species H                   .
  | Found nuclear charge :   1.0000
  | Found atomic mass :    1.00794000000000      amu
  | Found l_max for Hartree potential  :   4
  | Found cutoff potl. onset [A], width [A], scale factor :    3.50000    1.50000    1.00000
  | Threshold for basis-dependent cutoff potential is   0.100000E-03
  | Found data for basic radial integration grid :    24 points, outermost radius =    5.000 A
  | Found multiplier for basic radial grid :   1
  | Found angular grid specification: user-specified.
  | Specified grid contains     5 separate shells.
  | Check grid settings after all constraints further below.
  | Found free-atom valence shell :  1 s   1.000
  | No ionic wave fns used. Skipping ion_occ.
  | Found hydrogenic basis function :  2 s   2.100
  | Found hydrogenic basis function :  2 p   3.500
  Species H                   : Missing cutoff potential type.
  Defaulting to exp(1/x)/(1-x)^2 type cutoff potential.
  Species H : No 'logarithmic' tag. Using default grid for free atom:
  | Default logarithmic grid data [bohr] : 0.1000E-03 0.1000E+03 0.1012E+01
  Species H : On-site basis accuracy parameter (for Gram-Schmidt orthonormalisation) not specified.
  Using default value basis_acc =  0.1000000E-03.
  Species H                   : Using default innermost maximum threshold i_radial=  2 for radial functions.
  Species H                   : Default cutoff onset for free atom density etc. : 0.35000000E+01 AA.
  Species H                   : Basic radial grid will be enhanced according to radial_multiplier =   1, to contain    24 grid points.
 
  Reading configuration options for species C                   .
  | Found nuclear charge :   6.0000
  | Found atomic mass :    12.0107000000000      amu
  | Found l_max for Hartree potential  :   4
  | Found cutoff potl. onset [A], width [A], scale factor :    3.50000    1.50000    1.00000
  | Threshold for basis-dependent cutoff potential is   0.100000E-03
  | Found data for basic radial integration grid :    34 points, outermost radius =    5.000 A
  | Found multiplier for basic radial grid :   1
  | Found angular grid specification: user-specified.
  | Specified grid contains     5 separate shells.
  | Check grid settings after all constraints further below.
  | Found free-atom valence shell :  2 s   2.000
  | Found free-atom valence shell :  2 p   2.000
  | No ionic wave fns used. Skipping ion_occ.
  | No ionic wave fns used. Skipping ion_occ.
  | Found hydrogenic basis function :  2 p   1.700
  | Found hydrogenic basis function :  3 d   6.000
  | Found hydrogenic basis function :  2 s   4.900
  Species C                   : Missing cutoff potential type.
  Defaulting to exp(1/x)/(1-x)^2 type cutoff potential.
  Species C : No 'logarithmic' tag. Using default grid for free atom:
  | Default logarithmic grid data [bohr] : 0.1000E-03 0.1000E+03 0.1012E+01
  Species C : On-site basis accuracy parameter (for Gram-Schmidt orthonormalisation) not specified.
  Using default value basis_acc =  0.1000000E-03.
  Species C                   : Using default innermost maximum threshold i_radial=  2 for radial functions.
  Species C                   : Default cutoff onset for free atom density etc. : 0.35000000E+01 AA.
  Species C                   : Basic radial grid will be enhanced according to radial_multiplier =   1, to contain    34 grid points.
 
  Reading configuration options for species N                   .
  | Found nuclear charge :   7.0000
  | Found atomic mass :    14.0067000000000      amu
  | Found l_max for Hartree potential  :   4
  | Found cutoff potl. onset [A], width [A], scale factor :    3.50000    1.50000    1.00000
  | Threshold for basis-dependent cutoff potential is   0.100000E-03
  | Found data for basic radial integration grid :    35 points, outermost radius =    5.000 A
  | Found multiplier for basic radial grid :   1
  | Found angular grid specification: user-specified.
  | Specified grid contains     5 separate shells.
  | Check grid settings after all constraints further below.
  | Found free-atom valence shell :  2 s   2.000
  | Found free-atom valence shell :  2 p   3.000
  | No ionic wave fns used. Skipping ion_occ.
  | No ionic wave fns used. Skipping ion_occ.
  | Found hydrogenic basis function :  2 p   1.800
  | Found hydrogenic basis function :  3 d   6.800
  | Found hydrogenic basis function :  3 s   5.800
  Species N                   : Missing cutoff potential type.
  Defaulting to exp(1/x)/(1-x)^2 type cutoff potential.
  Species N : No 'logarithmic' tag. Using default grid for free atom:
  | Default logarithmic grid data [bohr] : 0.1000E-03 0.1000E+03 0.1012E+01
  Species N : On-site basis accuracy parameter (for Gram-Schmidt orthonormalisation) not specified.
  Using default value basis_acc =  0.1000000E-03.
  Species N                   : Using default innermost maximum threshold i_radial=  2 for radial functions.
  Species N                   : Default cutoff onset for free atom density etc. : 0.35000000E+01 AA.
  Species N                   : Basic radial grid will be enhanced according to radial_multiplier =   1, to contain    35 grid points.
 
  Reading configuration options for species O                   .
  | Found nuclear charge :   8.0000
  | Found atomic mass :    15.9994000000000      amu
  | Found l_max for Hartree potential  :   4
  | Found cutoff potl. onset [A], width [A], scale factor :    3.50000    1.50000    1.00000
  | Threshold for basis-dependent cutoff potential is   0.100000E-03
  | Found data for basic radial integration grid :    36 points, outermost radius =    5.000 A
  | Found multiplier for basic radial grid :   1
  | Found angular grid specification: user-specified.
  | Specified grid contains     5 separate shells.
  | Check grid settings after all constraints further below.
  | Found free-atom valence shell :  2 s   2.000
  | Found free-atom valence shell :  2 p   4.000
  | No ionic wave fns used. Skipping ion_occ.
  | No ionic wave fns used. Skipping ion_occ.
  | Found hydrogenic basis function :  2 p   1.800
  | Found hydrogenic basis function :  3 d   7.600
  | Found hydrogenic basis function :  3 s   6.400
  Species O                   : Missing cutoff potential type.
  Defaulting to exp(1/x)/(1-x)^2 type cutoff potential.
  Species O : No 'logarithmic' tag. Using default grid for free atom:
  | Default logarithmic grid data [bohr] : 0.1000E-03 0.1000E+03 0.1012E+01
  Species O : On-site basis accuracy parameter (for Gram-Schmidt orthonormalisation) not specified.
  Using default value basis_acc =  0.1000000E-03.
  Species O                   : Using default innermost maximum threshold i_radial=  2 for radial functions.
  Species O                   : Default cutoff onset for free atom density etc. : 0.35000000E+01 AA.
  Species O                   : Basic radial grid will be enhanced according to radial_multiplier =   1, to contain    36 grid points.
 
  Finished reading input file 'control.in'. Consistency checks are next.
 
  MPI_IN_PLACE appears to work with this MPI implementation.
  | Keeping use_mpi_in_place .true. (see manual).
  Target number of points in a grid batch is not set. Defaulting to  100
  Method for grid partitioning is not set. Defaulting to parallel hash+maxmin partitioning.
  Batch size limit is not set. Defaulting to    200
  By default, will store active basis functions for each batch.
  If in need of memory, prune_basis_once .false. can be used to disable this option.
  communication_type for Hartree potential was not specified.
  Defaulting to calc_hartree .
  Pulay mixer: Number of initial linear mixing iterations not set.
  Defaulting to    0 iterations.
  Work space size for distributed Hartree potential not set.
  Defaulting to   0.200000E+03 MB.
  Algorithm-dependent basis array size parameters:
  | n_max_pulay                         :       10
  Presetting      1001 iterations before the initial mixing cycle
  is restarted anyway using the sc_init_iter criterion / keyword.
  Presetting a factor      1.000 between actual scf density residual
  and density convergence criterion sc_accuracy_rho below which sc_init_iter
  takes no effect.
  Geometry relaxation not requested: no relaxation will be performed.
  Handling of forces: Unphysical translation and rotation will be removed from forces.
  No accuracy limit for integral partition fn. given. Defaulting to  0.1000E-14.
  No threshold value for u(r) in integrations given. Defaulting to  0.1000E-05.
  No accuracy for occupation numbers given. Defaulting to  0.1000E-12.
  No threshold value for occupation numbers given. Defaulting to  0.0000E+00.
  No accuracy for fermi level given. Defaulting to  0.1000E-19.
  Maximum # of iterations to find E_F not set. Defaulting to  200.
  Preferred method for the eigenvalue solver ('KS_method') not specified in 'control.in'.
  Defaulting to serial version, 'lapack_fast'.
  Will not use alltoall communication since running on < 1024 CPUs.
  Threshold for basis singularities not set.
  Default threshold for basis singularities:  0.1000E-04
  partition_type (choice of integration weights) for integrals was not specified.
  | Using a version of the partition function of Stratmann and coworkers ('stratmann_smoother').
  | At each grid point, the set of atoms used to build the partition table is smoothly restricted to
  | only those atoms whose free-atom density would be non-zero at that grid point.
  Partitioning for Hartree potential was not defined. Using partition_type for integrals.
  | Adjusted default value of keyword multip_moments_threshold to:       0.10000000E-11
  | This value may affect high angular momentum components of the Hartree potential in periodic systems.
  No q(lm)/r^(l+1) cutoff set for long-range Hartree potential.
  | Using default value of  0.100000E-09 .
  | Verify using the multipole_threshold keyword.
  Defaulting to new monopole extrapolation.
  Density update method: automatic selection selected.
------------------------------------------------------------


------------------------------------------------------------
          Reading geometry description geometry.in.
------------------------------------------------------------
  Input structure read successfully.
  The structure contains       13 atoms,  and a total of         48.000 electrons.

  Input geometry:
  | No unit cell requested.
  | Atomic structure:
  |       Atom                x [A]            y [A]            z [A]
  |    1: Species C             0.00000000        0.00000000        0.00000000
  |    2: Species H             1.09300000        0.00000000        0.00000000
  |    3: Species N            -0.47961000        0.00000000       -1.41207000
  |    4: Species H            -0.21280000       -0.88346000       -1.84813000
  |    5: Species H            -1.49247000        0.10119000       -1.41325000
  |    6: Species C            -0.49584000        1.26211000        0.72868000
  |    7: Species H            -1.58789000        1.28919000        0.74431000
  |    8: Species H            -0.13407000        1.27425000        1.75947000
  |    9: Species H            -0.13407000        2.16087000        0.22380000
  |   10: Species C            -0.39425000       -1.28861000        0.74398000
  |   11: Species O            -0.10189000       -1.56493000        1.88303000
  |   12: Species O            -1.10210000       -2.13717000        0.06896000
  |   13: Species H            -1.97791000       -1.74344000        0.22031000
  |

  | The smallest distance between any two atoms is         0.97209737 AA.
  |
  | The first atom of this pair is atom number                     12 .
  | The second atom of this pair is atom number                    13 .

  Number of empty states per atom not set in control.in - providing a guess from actual geometry.
  | Total number of empty states used during s.c.f. cycle:       29
  If you use a very high smearing, use empty_states (per atom!) in control.in to increase this value.

  Structure-dependent array size parameters: 
  | Maximum number of distinct radial functions  :       21
  | Maximum number of basis functions            :      119
  | Number of Kohn-Sham states (occupied + empty):       53
------------------------------------------------------------

------------------------------------------------------------
          Preparing all fixed parts of the calculation.
------------------------------------------------------------
  Determining machine precision:
    2.225073858507201E-308
  Setting up grids for atomic and cluster calculations.

  Creating wave function, potential, and density for free atoms.

  Species: H

  List of occupied orbitals and eigenvalues:
    n    l              occ      energy [Ha]    energy [eV]
    1    0           1.0000        -0.237589        -6.4651


  Species: C

  List of occupied orbitals and eigenvalues:
    n    l              occ      energy [Ha]    energy [eV]
    1    0           2.0000       -10.038835      -273.1706
    2    0           2.0000        -0.502696       -13.6791
    2    1           2.0000        -0.191971        -5.2238


  Species: N

  List of occupied orbitals and eigenvalues:
    n    l              occ      energy [Ha]    energy [eV]
    1    0           2.0000       -14.128000      -384.4424
    2    0           2.0000        -0.681077       -18.5330
    2    1           3.0000        -0.259788        -7.0692


  Species: O

  List of occupied orbitals and eigenvalues:
    n    l              occ      energy [Ha]    energy [eV]
    1    0           2.0000       -18.898188      -514.2459
    2    0           2.0000        -0.878505       -23.9053
    2    1           4.0000        -0.331779        -9.0282

  Creating fixed part of basis set: Ionic, confined, hydrogenic.
 
  H                    hydrogenic:
 
  List of hydrogenic basis orbitals: 
    n    l      effective z      eigenvalue [eV]  inner max. [A]     outer max. [A]     outer radius [A]   
    2    0         2.100000       -14.9728           0.193243           1.317208           4.583499
    2    1         3.500000       -41.6669           0.602369           0.602369           3.723403
 
 
  C                    hydrogenic:
 
  List of hydrogenic basis orbitals: 
    n    l      effective z      eigenvalue [eV]  inner max. [A]     outer max. [A]     outer radius [A]   
    2    1         1.700000        -9.7616           1.230570           1.230570           4.607917
    3    2         6.000000       -54.4224           0.792453           0.792453           3.883070
    2    0         4.900000       -81.6679           0.082559           0.562749           3.078220
 
 
  N                    hydrogenic:
 
  List of hydrogenic basis orbitals: 
    n    l      effective z      eigenvalue [eV]  inner max. [A]     outer max. [A]     outer radius [A]   
    2    1         1.800000       -10.9749           1.177451           1.177451           4.573712
    3    2         6.800000       -69.9026           0.704619           0.704619           3.538137
    3    0         5.800000       -50.8545           0.067388           1.191934           4.250239
 
 
  O                    hydrogenic:
 
  List of hydrogenic basis orbitals: 
    n    l      effective z      eigenvalue [eV]  inner max. [A]     outer max. [A]     outer radius [A]   
    2    1         1.800000       -10.9749           1.164242           1.164242           4.578029
    3    2         7.600000       -87.3180           0.624125           0.624125           3.251020
    3    0         6.400000       -61.9207           0.061167           1.081902           4.001998
 

  Adding cutoff potential to free-atom effective potential.
  Creating atomic-like basis functions for current effective potential.

  Species H                   :

  List of atomic basis orbitals and eigenvalues:
    n    l      energy [Ha]    energy [eV]    outer radius [A]
    1    0        -0.237589        -6.4651       4.527807


  Species C                   :

  List of atomic basis orbitals and eigenvalues:
    n    l      energy [Ha]    energy [eV]    outer radius [A]
    1    0       -10.038835      -273.1706       1.934409
    2    0        -0.502696       -13.6791       4.496620
    2    1        -0.191971        -5.2238       4.551928


  Species N                   :

  List of atomic basis orbitals and eigenvalues:
    n    l      energy [Ha]    energy [eV]    outer radius [A]
    1    0       -14.128000      -384.4424       1.637919
    2    0        -0.681077       -18.5330       4.463241
    2    1        -0.259788        -7.0692       4.518138


  Species O                   :

  List of atomic basis orbitals and eigenvalues:
    n    l      energy [Ha]    energy [eV]    outer radius [A]
    1    0       -18.898188      -514.2459       1.415765
    2    0        -0.878505       -23.9053       4.413171
    2    1        -0.331779        -9.0282       4.522403

  Assembling full basis from fixed parts.
  | Species H :   atomic orbital   1 s accepted.
  | Species H :    hydro orbital   2 s accepted.
  | Species H :    hydro orbital   2 p accepted.
  | Species C :   atomic orbital   1 s accepted.
  | Species C :    hydro orbital   2 s accepted.
  | Species C :   atomic orbital   2 s accepted.
  | Species C :   atomic orbital   2 p accepted.
  | Species C :    hydro orbital   2 p accepted.
  | Species C :    hydro orbital   3 d accepted.
  | Species N :   atomic orbital   1 s accepted.
  | Species N :    hydro orbital   3 s accepted.
  | Species N :   atomic orbital   2 s accepted.
  | Species N :   atomic orbital   2 p accepted.
  | Species N :    hydro orbital   2 p accepted.
  | Species N :    hydro orbital   3 d accepted.
  | Species O :   atomic orbital   1 s accepted.
  | Species O :    hydro orbital   3 s accepted.
  | Species O :   atomic orbital   2 s accepted.
  | Species O :   atomic orbital   2 p accepted.
  | Species O :    hydro orbital   2 p accepted.
  | Species O :    hydro orbital   3 d accepted.
 
  Basis size parameters after reduction:
  | Total number of radial functions:       21
  | Total number of basis functions :      119
 
  Per-task memory consumption for arrays in subroutine allocate_ext:
  |           5.250512MB.
  Testing on-site integration grid accuracy.
  |  Species  Function  <phi|h_atom|phi> (log., in eV)  <phi|h_atom|phi> (rad., in eV)
           1        1                 -6.4663192853                 -6.4651273558
           1        2                 13.7111246313                 13.7170609718
           1        3                 25.2673269279                 25.2674696378
           2        4               -273.1705927641               -273.1705631568
           2        5                -10.7109323383                -10.7107120029
           2        6                 17.4381822266                 17.4352413244
           2        7                 -5.2255326521                 -5.2270484734
           2        8                  8.6835629259                  8.6603288385
           2        9                 27.4952418996                 27.4953360207
           3       10               -384.4424306495               -384.4423701208
           3       11                 12.5842251816                 12.5842222903
           3       12                -15.7264628251                -15.7264433455
           3       13                 -7.0696854293                 -7.0701769954
           3       14                  8.8090390882                  8.7901077751
           3       15                 35.9586762123                 35.9588528632
           4       16               -514.2458688638               -514.2457643834
           4       17                 15.1795651126                 15.1795290741
           4       18                -21.5359799773                -21.5360846186
           4       19                 -9.0283069236                 -9.0284644067
           4       20                  8.3027758564                  8.2834874195
           4       21                 45.8339351984                 45.8338762259

  Preparing densities etc. for the partition functions (integrals / Hartree potential).

  Preparations completed.
  max(cpu_time)          :      0.147 s.
  Wall clock time (cpu1) :      0.148 s.
------------------------------------------------------------

------------------------------------------------------------
          Begin self-consistency loop: Initialization.

          Date     :  20200710, Time     :  145253.839
------------------------------------------------------------

  Initializing index lists of integration centers etc. from given atomic structure:
  | Number of centers in hartree potential         :        13
  | Number of centers in hartree multipole         :        13
  | Number of centers in electron density summation:        13
  | Number of centers in basis integrals           :        13
  | Number of centers in integrals                 :        13
  | Number of centers in hamiltonian               :        13
  Partitioning the integration grid into batches with parallel hashing+maxmin method.
  | Number of batches:      960
  | Maximal batch size:     139
  | Minimal batch size:      66
  | Average batch size:      72.548
  | Standard deviation of batch sizes:      16.964

  Integration load balanced across     1 MPI tasks.
  Work distribution over tasks is as follows:
  Task     0 has      69646 integration points.
  Initializing partition tables, free-atom densities, potentials, etc. across the integration grid (initialize_grid_storage).
  | initialize_grid_storage: Actual outermost partition radius vs. multipole_radius_free
  | (-- VB: in principle, multipole_radius_free should be larger, hence this output)
  | Species        1: Confinement radius =              4.999999999999999 AA, multipole_radius_free =              5.054417573612229 AA.
  | Species        1: outer_partition_radius set to              5.054417573612229 AA .
  | Species        2: Confinement radius =              4.999999999999999 AA, multipole_radius_free =              5.019602836301480 AA.
  | Species        2: outer_partition_radius set to              5.019602836301480 AA .
  | Species        3: Confinement radius =              4.999999999999999 AA, multipole_radius_free =              5.043624274424571 AA.
  | Species        3: outer_partition_radius set to              5.043624274424571 AA .
  | Species        4: Confinement radius =              4.999999999999999 AA, multipole_radius_free =              5.048384829883283 AA.
  | Species        4: outer_partition_radius set to              5.048384829883283 AA .
  | Original list of interatomic distances with          13 x         13 entries is created.
  | Net number of integration points:    69646
  | of which are non-zero points    :    59355
  Renormalizing the initial density to the exact electron count on the 3D integration grid.
  | Initial density: Formal number of electrons (from input files) :      48.0000000000
  | Integrated number of electrons on 3D grid     :      47.9998549119
  | Charge integration error                      :      -0.0001450881
  | Normalization factor for density and gradient :       1.0000030227
  Obtaining max. number of non-zero basis functions in each batch (get_n_compute_maxes).
  | Maximal number of non-zero basis functions:      119 in task     0
  Selecting the method for density update.
  Loop over occupied states selected for charge density update.
  Allocating        0.050 MB for KS_eigenvector
  Integrating Hamiltonian matrix: batch-based integration.
  Time summed over all CPUs for integration: real work        0.497 s, elapsed        0.497 s
  Integrating overlap matrix.
  Time summed over all CPUs for integration: real work        0.213 s, elapsed        0.213 s

  Updating Kohn-Sham eigenvalues and eigenvectors using ELSI and the ELPA eigensolver.
  Overlap matrix is nonsingular
  | Lowest eigenvalue of overlap  :  0.53E-02
  | Highest eigenvalue of overlap :  0.63E+01
  Finished singularity check of overlap matrix
  | Time :     0.002 s
  Finished Cholesky decomposition
  | Time :     0.001 s
  Finished transformation to standard eigenproblem
  | Time :     0.000 s
  Starting LAPACK eigensolver
  Finished solving standard eigenproblem
  | Time :     0.002 s
  Finished back-transformation of eigenvectors
  | Time :     0.000 s

  Obtaining occupation numbers and chemical potential using ELSI.
  | Chemical potential (Fermi level):    -8.41865022eV
  Writing Kohn-Sham eigenvalues.

  State    Occupation    Eigenvalue [Ha]    Eigenvalue [eV]
      1       2.00000         -19.007834         -517.22948
      2       2.00000         -18.977275         -516.39793
      3       2.00000         -14.245850         -387.64931
      4       2.00000         -10.166701         -276.65001
      5       2.00000         -10.141353         -275.96025
      6       2.00000         -10.132069         -275.70763
      7       2.00000          -1.183412          -32.20228
      8       2.00000          -1.097811          -29.87297
      9       2.00000          -0.991012          -26.96680
     10       2.00000          -0.860706          -23.42099
     11       2.00000          -0.754442          -20.52940
     12       2.00000          -0.679142          -18.48039
     13       2.00000          -0.627251          -17.06837
     14       2.00000          -0.619677          -16.86226
     15       2.00000          -0.578595          -15.74437
     16       2.00000          -0.574592          -15.63543
     17       2.00000          -0.551303          -15.00171
     18       2.00000          -0.532097          -14.47911
     19       2.00000          -0.513387          -13.96997
     20       2.00000          -0.494240          -13.44896
     21       2.00000          -0.457222          -12.44166
     22       2.00000          -0.432322          -11.76407
     23       2.00000          -0.418510          -11.38823
     24       2.00000          -0.376570          -10.24699
     25       0.00000          -0.162765           -4.42907
     26       0.00000          -0.071229           -1.93825
     27       0.00000          -0.031170           -0.84818
     28       0.00000          -0.013027           -0.35447
     29       0.00000           0.006469            0.17604
     30       0.00000           0.012279            0.33413
     31       0.00000           0.014471            0.39377
     32       0.00000           0.028563            0.77725
     33       0.00000           0.045542            1.23925
     34       0.00000           0.056016            1.52427
     35       0.00000           0.089377            2.43206
     36       0.00000           0.133870            3.64278
     37       0.00000           0.163651            4.45316
     38       0.00000           0.203820            5.54621
     39       0.00000           0.216277            5.88520
     40       0.00000           0.235253            6.40157
     41       0.00000           0.248074            6.75043
     42       0.00000           0.271342            7.38360
     43       0.00000           0.275977            7.50972
     44       0.00000           0.294113            8.00322
     45       0.00000           0.317965            8.65227
     46       0.00000           0.364042            9.90608
     47       0.00000           0.371530           10.10985
     48       0.00000           0.380917           10.36527
     49       0.00000           0.456051           12.40979
     50       0.00000           0.463510           12.61274
     51       0.00000           0.501548           13.64782
     52       0.00000           0.522620           14.22123
     53       0.00000           0.610216           16.60483

  Highest occupied state (VBM) at    -10.24699265 eV
  | Occupation number:      2.00000000

  Lowest unoccupied state (CBM) at    -4.42906950 eV
  | Occupation number:      0.00000000

  Overall HOMO-LUMO gap:      5.81792315 eV.
  Calculating total energy contributions from superposition of free atom densities.

  Total energy components:
  | Sum of eigenvalues            :        -188.82674336 Ha       -5138.23711734 eV
  | XC energy correction          :         -41.78737370 Ha       -1137.09229293 eV
  | XC potential correction       :          53.71834977 Ha        1461.75067033 eV
  | Free-atom electrostatic energy:        -146.86101462 Ha       -3996.29153691 eV
  | Hartree energy correction     :           0.00000000 Ha           0.00000000 eV
  | vdW energy correction         :           0.00000000 Ha           0.00000000 eV
  | Entropy correction            :           0.00000000 Ha           0.00000000 eV
  | ---------------------------
  | Total energy                  :        -323.75678190 Ha       -8809.87027684 eV
  | Total energy, T -> 0          :        -323.75678190 Ha       -8809.87027684 eV  <-- do not rely on this value for anything but (periodic) metals
  | Electronic free energy        :        -323.75678190 Ha       -8809.87027684 eV

  Derived energy quantities:
  | Kinetic energy                :         320.49599280 Ha        8721.13969089 eV
  | Electrostatic energy          :        -602.46540101 Ha      -16393.91767480 eV
  | Energy correction for multipole
  | error in Hartree potential    :           0.00000000 Ha           0.00000000 eV
  | Sum of eigenvalues per atom                           :        -395.24900903 eV
  | Total energy (T->0) per atom                          :        -677.68232899 eV  <-- do not rely on this value for anything but (periodic) metals
  | Electronic free energy per atom                       :        -677.68232899 eV
  Initialize hartree_potential_storage
  Max. number of atoms included in rho_multipole:           13

  End scf initialization - timings             :  max(cpu_time)    wall_clock(cpu1)
  | Time for scf. initialization               :        1.156 s           1.157 s
  | Boundary condition initialization          :        0.000 s           0.000 s
  | Integration                                :        0.710 s           0.711 s
  | Solution of K.-S. eqns.                    :        0.004 s           0.004 s
  | Grid partitioning                          :        0.112 s           0.113 s
  | Preloading free-atom quantities on grid    :        0.002 s           0.002 s
  | Free-atom superposition energy             :        0.085 s           0.085 s
  | Total energy evaluation                    :        0.000 s           0.000 s

  Partial memory accounting:
  | Current value for overall tracked memory usage on task 0  :           0.165 MB
  | Peak value for overall tracked memory usage on task 0     :           0.678 MB after allocating wave
  | Largest tracked array allocation on task 0 so far         :           0.132 MB  when allocating H_times_psi
  Note:  These values currently only include a subset of arrays which are explicitly tracked.
  The "true" memory usage will be greater.
------------------------------------------------------------

------------------------------------------------------------
          Begin self-consistency iteration #    1

  Date     :  20200710, Time     :  145254.997
------------------------------------------------------------
  Evaluating new KS density.
  Integration grid: deviation in total charge (<rho> - N_e) =   2.842171E-14
  Pulay mixing of updated and previous charge densities.

  Evaluating partitioned Hartree potential by multipole expansion.
  | Analytical far-field extrapolation by fixed multipoles:
  | Hartree multipole sum: apparent total charge =  -0.255577E-03
  Summing up the Hartree potential.
  Time summed over all CPUs for potential: real work        0.283 s, elapsed        0.283 s
  | RMS charge density error from multipole expansion :   0.597819E-02

  Integrating Hamiltonian matrix: batch-based integration.
  Time summed over all CPUs for integration: real work        0.501 s, elapsed        0.501 s

  Updating Kohn-Sham eigenvalues and eigenvectors using ELSI and the ELPA eigensolver.
  Finished Cholesky decomposition
  | Time :     0.000 s
  Finished transformation to standard eigenproblem
  | Time :     0.000 s
  Starting LAPACK eigensolver
  Finished solving standard eigenproblem
  | Time :     0.002 s
  Finished back-transformation of eigenvectors
  | Time :     0.000 s

  Obtaining occupation numbers and chemical potential using ELSI.
  | Chemical potential (Fermi level):    -7.29358292eV
  Writing Kohn-Sham eigenvalues.

  State    Occupation    Eigenvalue [Ha]    Eigenvalue [eV]
      1       2.00000         -18.898303         -514.24898
      2       2.00000         -18.839414         -512.64654
      3       2.00000         -14.097565         -383.61427
      4       2.00000         -10.117977         -275.32417
      5       2.00000         -10.063561         -273.84344
      6       2.00000         -10.033298         -273.01992
      7       2.00000          -1.134239          -30.86423
      8       2.00000          -1.035606          -28.18028
      9       2.00000          -0.922634          -25.10616
     10       2.00000          -0.795817          -21.65529
     11       2.00000          -0.703675          -19.14798
     12       2.00000          -0.634353          -17.26161
     13       2.00000          -0.578064          -15.72993
     14       2.00000          -0.558784          -15.20529
     15       2.00000          -0.521081          -14.17935
     16       2.00000          -0.515119          -14.01710
     17       2.00000          -0.490549          -13.34851
     18       2.00000          -0.472574          -12.85941
     19       2.00000          -0.448010          -12.19096
     20       2.00000          -0.440008          -11.97321
     21       2.00000          -0.396016          -10.77615
     22       2.00000          -0.372877          -10.14650
     23       2.00000          -0.350450           -9.53623
     24       2.00000          -0.304440           -8.28422
     25       0.00000          -0.128551           -3.49804
     26       0.00000          -0.053793           -1.46378
     27       0.00000           0.005071            0.13799
     28       0.00000           0.016342            0.44469
     29       0.00000           0.029606            0.80561
     30       0.00000           0.051746            1.40808
     31       0.00000           0.056631            1.54102
     32       0.00000           0.066243            1.80256
     33       0.00000           0.081560            2.21936
     34       0.00000           0.095644            2.60261
     35       0.00000           0.130143            3.54136
     36       0.00000           0.162490            4.42157
     37       0.00000           0.186696            5.08026
     38       0.00000           0.232114            6.31615
     39       0.00000           0.248148            6.75245
     40       0.00000           0.269093            7.32238
     41       0.00000           0.280118            7.62239
     42       0.00000           0.305633            8.31671
     43       0.00000           0.312627            8.50702
     44       0.00000           0.330173            8.98445
     45       0.00000           0.355835            9.68276
     46       0.00000           0.400204           10.89009
     47       0.00000           0.413333           11.24737
     48       0.00000           0.416944           11.34562
     49       0.00000           0.490937           13.35909
     50       0.00000           0.503746           13.70762
     51       0.00000           0.531058           14.45081
     52       0.00000           0.555017           15.10277
     53       0.00000           0.648208           17.63865

  Highest occupied state (VBM) at     -8.28422449 eV
  | Occupation number:      2.00000000

  Lowest unoccupied state (CBM) at    -3.49804302 eV
  | Occupation number:      0.00000000

  Overall HOMO-LUMO gap:      4.78618147 eV.

  Total energy components:
  | Sum of eigenvalues            :        -185.44883120 Ha       -5046.31945084 eV
  | XC energy correction          :         -42.11787524 Ha       -1146.08569753 eV
  | XC potential correction       :          54.14821175 Ha        1473.44780982 eV
  | Free-atom electrostatic energy:        -146.86101462 Ha       -3996.29153691 eV
  | Hartree energy correction     :          -3.29194986 Ha         -89.57851340 eV
  | vdW energy correction         :           0.00000000 Ha           0.00000000 eV
  | Entropy correction            :           0.00000000 Ha           0.00000000 eV
  | ---------------------------
  | Total energy                  :        -323.57145918 Ha       -8804.82738886 eV
  | Total energy, T -> 0          :        -323.57145918 Ha       -8804.82738886 eV  <-- do not rely on this value for anything but (periodic) metals
  | Electronic free energy        :        -323.57145918 Ha       -8804.82738886 eV

  Derived energy quantities:
  | Kinetic energy                :         322.30252603 Ha        8770.29796112 eV
  | Electrostatic energy          :        -603.75610996 Ha      -16429.03965244 eV
  | Energy correction for multipole
  | error in Hartree potential    :           0.01187769 Ha           0.32320827 eV
  | Sum of eigenvalues per atom                           :        -388.17841930 eV
  | Total energy (T->0) per atom                          :        -677.29441453 eV  <-- do not rely on this value for anything but (periodic) metals
  | Electronic free energy per atom                       :        -677.29441453 eV

  Self-consistency convergence accuracy:
  | Change of charge density      :  0.5894E+00
  | Change of sum of eigenvalues  :  0.9192E+02 eV
  | Change of total energy        :  0.5043E+01 eV

  End self-consistency iteration #     1       :  max(cpu_time)    wall_clock(cpu1)
  | Time for this iteration                    :        1.203 s           1.204 s
  | Charge density update                      :        0.401 s           0.401 s
  | Density mixing                             :        0.006 s           0.005 s
  | Hartree multipole update                   :        0.009 s           0.008 s
  | Hartree multipole summation                :        0.284 s           0.285 s
  | Integration                                :        0.501 s           0.501 s
  | Solution of K.-S. eqns.                    :        0.002 s           0.002 s
  | Total energy evaluation                    :        0.000 s           0.001 s

  Partial memory accounting:
  | Current value for overall tracked memory usage on task 0  :           0.165 MB
  | Peak value for overall tracked memory usage on task 0     :           0.695 MB after allocating gradient_basis_wave
  | Largest tracked array allocation on task 0 so far         :           0.397 MB  when allocating gradient_basis_wave
  Note:  These values currently only include a subset of arrays which are explicitly tracked.
  The "true" memory usage will be greater.
------------------------------------------------------------

------------------------------------------------------------
          Begin self-consistency iteration #    2

  Date     :  20200710, Time     :  145256.202
------------------------------------------------------------
  Evaluating new KS density.
  Integration grid: deviation in total charge (<rho> - N_e) =  -4.973799E-14
  Pulay mixing of updated and previous charge densities.

  Evaluating partitioned Hartree potential by multipole expansion.
  | Analytical far-field extrapolation by fixed multipoles:
  | Hartree multipole sum: apparent total charge =  -0.395219E-03
  Summing up the Hartree potential.
  Time summed over all CPUs for potential: real work        0.290 s, elapsed        0.290 s
  | RMS charge density error from multipole expansion :   0.140835E-01

  Integrating Hamiltonian matrix: batch-based integration.
  Time summed over all CPUs for integration: real work        0.502 s, elapsed        0.502 s

  Updating Kohn-Sham eigenvalues and eigenvectors using ELSI and the ELPA eigensolver.
  Finished Cholesky decomposition
  | Time :     0.000 s
  Finished transformation to standard eigenproblem
  | Time :     0.000 s
  Starting LAPACK eigensolver
  Finished solving standard eigenproblem
  | Time :     0.002 s
  Finished back-transformation of eigenvectors
  | Time :     0.000 s

  Obtaining occupation numbers and chemical potential using ELSI.
  | Chemical potential (Fermi level):    -6.04328114eV
  Highest occupied state (VBM) at     -6.34264495 eV
  | Occupation number:      2.00000000

  Lowest unoccupied state (CBM) at    -2.29952376 eV
  | Occupation number:      0.00000000

  Overall HOMO-LUMO gap:      4.04312119 eV.

  Checking to see if s.c.f. parameters should be adjusted.

  Total energy components:
  | Sum of eigenvalues            :        -181.91858620 Ha       -4950.25659673 eV
  | XC energy correction          :         -42.47579446 Ha       -1155.82517493 eV
  | XC potential correction       :          54.61219578 Ha        1486.07345771 eV
  | Free-atom electrostatic energy:        -146.86101462 Ha       -3996.29153691 eV
  | Hartree energy correction     :          -6.84835263 Ha        -186.35315649 eV
  | vdW energy correction         :           0.00000000 Ha           0.00000000 eV
  | Entropy correction            :           0.00000000 Ha           0.00000000 eV
  | ---------------------------
  | Total energy                  :        -323.49155212 Ha       -8802.65300734 eV
  | Total energy, T -> 0          :        -323.49155212 Ha       -8802.65300734 eV  <-- do not rely on this value for anything but (periodic) metals
  | Electronic free energy        :        -323.49155212 Ha       -8802.65300734 eV

  Derived energy quantities:
  | Kinetic energy                :         323.61688762 Ha        8806.06355973 eV
  | Electrostatic energy          :        -604.63264529 Ha      -16452.89139214 eV
  | Energy correction for multipole
  | error in Hartree potential    :           0.02598013 Ha           0.70695537 eV
  | Sum of eigenvalues per atom                           :        -380.78896898 eV
  | Total energy (T->0) per atom                          :        -677.12715441 eV  <-- do not rely on this value for anything but (periodic) metals
  | Electronic free energy per atom                       :        -677.12715441 eV

  Self-consistency convergence accuracy:
  | Change of charge density      :  0.3690E+00
  | Change of sum of eigenvalues  :  0.9606E+02 eV
  | Change of total energy        :  0.2174E+01 eV

  End self-consistency iteration #     2       :  max(cpu_time)    wall_clock(cpu1)
  | Time for this iteration                    :        1.196 s           1.203 s
  | Charge density update                      :        0.391 s           0.391 s
  | Density mixing                             :        0.007 s           0.007 s
  | Hartree multipole update                   :        0.009 s           0.009 s
  | Hartree multipole summation                :        0.284 s           0.291 s
  | Integration                                :        0.503 s           0.503 s
  | Solution of K.-S. eqns.                    :        0.002 s           0.002 s
  | Total energy evaluation                    :        0.000 s           0.000 s

  Partial memory accounting:
  | Current value for overall tracked memory usage on task 0  :           0.166 MB
  | Peak value for overall tracked memory usage on task 0     :           0.695 MB after allocating gradient_basis_wave
  | Largest tracked array allocation on task 0 so far         :           0.397 MB  when allocating gradient_basis_wave
  Note:  These values currently only include a subset of arrays which are explicitly tracked.
  The "true" memory usage will be greater.
------------------------------------------------------------

------------------------------------------------------------
          Begin self-consistency iteration #    3

  Date     :  20200710, Time     :  145257.407
------------------------------------------------------------
  Evaluating new KS density.
  Integration grid: deviation in total charge (<rho> - N_e) =  -2.131628E-14
  Pulay mixing of updated and previous charge densities.

  Evaluating partitioned Hartree potential by multipole expansion.
  | Analytical far-field extrapolation by fixed multipoles:
  | Hartree multipole sum: apparent total charge =  -0.494286E-03
  Summing up the Hartree potential.
  Time summed over all CPUs for potential: real work        0.283 s, elapsed        0.283 s
  | RMS charge density error from multipole expansion :   0.220245E-01

  Integrating Hamiltonian matrix: batch-based integration.
  Time summed over all CPUs for integration: real work        0.503 s, elapsed        0.503 s

  Updating Kohn-Sham eigenvalues and eigenvectors using ELSI and the ELPA eigensolver.
  Finished Cholesky decomposition
  | Time :     0.000 s
  Finished transformation to standard eigenproblem
  | Time :     0.000 s
  Starting LAPACK eigensolver
  Finished solving standard eigenproblem
  | Time :     0.002 s
  Finished back-transformation of eigenvectors
  | Time :     0.000 s

  Obtaining occupation numbers and chemical potential using ELSI.
  | Chemical potential (Fermi level):    -5.41083325eV
  Highest occupied state (VBM) at     -5.65707632 eV
  | Occupation number:      2.00000000

  Lowest unoccupied state (CBM) at    -1.60211513 eV
  | Occupation number:      0.00000000

  Overall HOMO-LUMO gap:      4.05496119 eV.

  Total energy components:
  | Sum of eigenvalues            :        -180.57529131 Ha       -4913.70368310 eV
  | XC energy correction          :         -42.63041975 Ha       -1160.03274324 eV
  | XC potential correction       :          54.80959907 Ha        1491.44507469 eV
  | Free-atom electrostatic energy:        -146.86101462 Ha       -3996.29153691 eV
  | Hartree energy correction     :          -8.22103815 Ha        -223.70583009 eV
  | vdW energy correction         :           0.00000000 Ha           0.00000000 eV
  | Entropy correction            :          -0.00000000 Ha          -0.00000000 eV
  | ---------------------------
  | Total energy                  :        -323.47816476 Ha       -8802.28871864 eV
  | Total energy, T -> 0          :        -323.47816476 Ha       -8802.28871864 eV  <-- do not rely on this value for anything but (periodic) metals
  | Electronic free energy        :        -323.47816476 Ha       -8802.28871864 eV

  Derived energy quantities:
  | Kinetic energy                :         323.24151252 Ha        8795.84908343 eV
  | Electrostatic energy          :        -604.08925753 Ha      -16438.10505883 eV
  | Energy correction for multipole
  | error in Hartree potential    :           0.03665110 Ha           0.99732715 eV
  | Sum of eigenvalues per atom                           :        -377.97720639 eV
  | Total energy (T->0) per atom                          :        -677.09913220 eV  <-- do not rely on this value for anything but (periodic) metals
  | Electronic free energy per atom                       :        -677.09913220 eV

  Self-consistency convergence accuracy:
  | Change of charge density      :  0.2083E+00
  | Change of sum of eigenvalues  :  0.3655E+02 eV
  | Change of total energy        :  0.3643E+00 eV

  End self-consistency iteration #     3       :  max(cpu_time)    wall_clock(cpu1)
  | Time for this iteration                    :        1.197 s           1.198 s
  | Charge density update                      :        0.391 s           0.391 s
  | Density mixing                             :        0.008 s           0.009 s
  | Hartree multipole update                   :        0.009 s           0.008 s
  | Hartree multipole summation                :        0.284 s           0.284 s
  | Integration                                :        0.503 s           0.503 s
  | Solution of K.-S. eqns.                    :        0.002 s           0.002 s
  | Total energy evaluation                    :        0.000 s           0.001 s

  Partial memory accounting:
  | Current value for overall tracked memory usage on task 0  :           0.166 MB
  | Peak value for overall tracked memory usage on task 0     :           0.695 MB after allocating gradient_basis_wave
  | Largest tracked array allocation on task 0 so far         :           0.397 MB  when allocating gradient_basis_wave
  Note:  These values currently only include a subset of arrays which are explicitly tracked.
  The "true" memory usage will be greater.
------------------------------------------------------------

------------------------------------------------------------
          Begin self-consistency iteration #    4

  Date     :  20200710, Time     :  145258.605
------------------------------------------------------------
  Evaluating new KS density.
  Integration grid: deviation in total charge (<rho> - N_e) =  -3.552714E-14
  Pulay mixing of updated and previous charge densities.

  Evaluating partitioned Hartree potential by multipole expansion.
  | Analytical far-field extrapolation by fixed multipoles:
  | Hartree multipole sum: apparent total charge =  -0.528560E-03
  Summing up the Hartree potential.
  Time summed over all CPUs for potential: real work        0.283 s, elapsed        0.283 s
  | RMS charge density error from multipole expansion :   0.255786E-01

  Integrating Hamiltonian matrix: batch-based integration.
  Time summed over all CPUs for integration: real work        0.498 s, elapsed        0.498 s

  Updating Kohn-Sham eigenvalues and eigenvectors using ELSI and the ELPA eigensolver.
  Finished Cholesky decomposition
  | Time :     0.000 s
  Finished transformation to standard eigenproblem
  | Time :     0.000 s
  Starting LAPACK eigensolver
  Finished solving standard eigenproblem
  | Time :     0.002 s
  Finished back-transformation of eigenvectors
  | Time :     0.000 s

  Obtaining occupation numbers and chemical potential using ELSI.
  | Chemical potential (Fermi level):    -5.32935069eV
  Highest occupied state (VBM) at     -5.46077497 eV
  | Occupation number:      2.00000000

  Lowest unoccupied state (CBM) at    -1.50401179 eV
  | Occupation number:      0.00000000

  Overall HOMO-LUMO gap:      3.95676318 eV.

  Total energy components:
  | Sum of eigenvalues            :        -180.44230081 Ha       -4910.08482750 eV
  | XC energy correction          :         -42.66839455 Ha       -1161.06608998 eV
  | XC potential correction       :          54.85731066 Ha        1492.74337296 eV
  | Free-atom electrostatic energy:        -146.86101462 Ha       -3996.29153691 eV
  | Hartree energy correction     :          -8.36262376 Ha        -227.55857063 eV
  | vdW energy correction         :           0.00000000 Ha           0.00000000 eV
  | Entropy correction            :          -0.00000000 Ha          -0.00000000 eV
  | ---------------------------
  | Total energy                  :        -323.47702308 Ha       -8802.25765206 eV
  | Total energy, T -> 0          :        -323.47702308 Ha       -8802.25765206 eV  <-- do not rely on this value for anything but (periodic) metals
  | Electronic free energy        :        -323.47702308 Ha       -8802.25765206 eV

  Derived energy quantities:
  | Kinetic energy                :         322.82655205 Ha        8784.55743465 eV
  | Electrostatic energy          :        -603.63518059 Ha      -16425.74899673 eV
  | Energy correction for multipole
  | error in Hartree potential    :           0.04093715 Ha           1.11395662 eV
  | Sum of eigenvalues per atom                           :        -377.69883288 eV
  | Total energy (T->0) per atom                          :        -677.09674247 eV  <-- do not rely on this value for anything but (periodic) metals
  | Electronic free energy per atom                       :        -677.09674247 eV

  Self-consistency convergence accuracy:
  | Change of charge density      :  0.6994E-01
  | Change of sum of eigenvalues  :  0.3619E+01 eV
  | Change of total energy        :  0.3107E-01 eV

  End self-consistency iteration #     4       :  max(cpu_time)    wall_clock(cpu1)
  | Time for this iteration                    :        1.192 s           1.193 s
  | Charge density update                      :        0.390 s           0.391 s
  | Density mixing                             :        0.010 s           0.009 s
  | Hartree multipole update                   :        0.009 s           0.009 s
  | Hartree multipole summation                :        0.283 s           0.284 s
  | Integration                                :        0.498 s           0.497 s
  | Solution of K.-S. eqns.                    :        0.002 s           0.003 s
  | Total energy evaluation                    :        0.000 s           0.000 s

  Partial memory accounting:
  | Current value for overall tracked memory usage on task 0  :           0.166 MB
  | Peak value for overall tracked memory usage on task 0     :           0.696 MB after allocating gradient_basis_wave
  | Largest tracked array allocation on task 0 so far         :           0.397 MB  when allocating gradient_basis_wave
  Note:  These values currently only include a subset of arrays which are explicitly tracked.
  The "true" memory usage will be greater.
------------------------------------------------------------

------------------------------------------------------------
          Begin self-consistency iteration #    5

  Date     :  20200710, Time     :  145259.799
------------------------------------------------------------
  Evaluating new KS density.
  Integration grid: deviation in total charge (<rho> - N_e) =  -7.815970E-14
  Pulay mixing of updated and previous charge densities.

  Evaluating partitioned Hartree potential by multipole expansion.
  | Analytical far-field extrapolation by fixed multipoles:
  | Hartree multipole sum: apparent total charge =  -0.522243E-03
  Summing up the Hartree potential.
  Time summed over all CPUs for potential: real work        0.286 s, elapsed        0.286 s
  | RMS charge density error from multipole expansion :   0.253474E-01

  Integrating Hamiltonian matrix: batch-based integration.
  Time summed over all CPUs for integration: real work        0.498 s, elapsed        0.498 s

  Updating Kohn-Sham eigenvalues and eigenvectors using ELSI and the ELPA eigensolver.
  Finished Cholesky decomposition
  | Time :     0.000 s
  Finished transformation to standard eigenproblem
  | Time :     0.000 s
  Starting LAPACK eigensolver
  Finished solving standard eigenproblem
  | Time :     0.001 s
  Finished back-transformation of eigenvectors
  | Time :     0.000 s

  Obtaining occupation numbers and chemical potential using ELSI.
  | Chemical potential (Fermi level):    -5.39429246eV
  Highest occupied state (VBM) at     -5.56505780 eV
  | Occupation number:      2.00000000

  Lowest unoccupied state (CBM) at    -1.60588003 eV
  | Occupation number:      0.00000000

  Overall HOMO-LUMO gap:      3.95917777 eV.

  Total energy components:
  | Sum of eigenvalues            :        -180.65226967 Ha       -4915.79837092 eV
  | XC energy correction          :         -42.64274835 Ha       -1160.36822138 eV
  | XC potential correction       :          54.82402374 Ha        1491.83758992 eV
  | Free-atom electrostatic energy:        -146.86101462 Ha       -3996.29153691 eV
  | Hartree energy correction     :          -8.14472892 Ha        -221.62935037 eV
  | vdW energy correction         :           0.00000000 Ha           0.00000000 eV
  | Entropy correction            :          -0.00000000 Ha          -0.00000000 eV
  | ---------------------------
  | Total energy                  :        -323.47673782 Ha       -8802.24988966 eV
  | Total energy, T -> 0          :        -323.47673782 Ha       -8802.24988966 eV  <-- do not rely on this value for anything but (periodic) metals
  | Electronic free energy        :        -323.47673782 Ha       -8802.24988966 eV

  Derived energy quantities:
  | Kinetic energy                :         322.70018982 Ha        8781.11894344 eV
  | Electrostatic energy          :        -603.53417930 Ha      -16423.00061171 eV
  | Energy correction for multipole
  | error in Hartree potential    :           0.04031795 Ha           1.09710737 eV
  | Sum of eigenvalues per atom                           :        -378.13833622 eV
  | Total energy (T->0) per atom                          :        -677.09614536 eV  <-- do not rely on this value for anything but (periodic) metals
  | Electronic free energy per atom                       :        -677.09614536 eV

  Self-consistency convergence accuracy:
  | Change of charge density      :  0.2052E-01
  | Change of sum of eigenvalues  : -0.5714E+01 eV
  | Change of total energy        :  0.7762E-02 eV

  End self-consistency iteration #     5       :  max(cpu_time)    wall_clock(cpu1)
  | Time for this iteration                    :        1.196 s           1.197 s
  | Charge density update                      :        0.390 s           0.390 s
  | Density mixing                             :        0.011 s           0.011 s
  | Hartree multipole update                   :        0.009 s           0.009 s
  | Hartree multipole summation                :        0.286 s           0.286 s
  | Integration                                :        0.498 s           0.498 s
  | Solution of K.-S. eqns.                    :        0.002 s           0.002 s
  | Total energy evaluation                    :        0.000 s           0.000 s

  Partial memory accounting:
  | Current value for overall tracked memory usage on task 0  :           0.166 MB
  | Peak value for overall tracked memory usage on task 0     :           0.696 MB after allocating gradient_basis_wave
  | Largest tracked array allocation on task 0 so far         :           0.397 MB  when allocating gradient_basis_wave
  Note:  These values currently only include a subset of arrays which are explicitly tracked.
  The "true" memory usage will be greater.
------------------------------------------------------------

------------------------------------------------------------
          Begin self-consistency iteration #    6

  Date     :  20200710, Time     :  145300.997
------------------------------------------------------------
  Evaluating new KS density.
  Integration grid: deviation in total charge (<rho> - N_e) =   0.000000E+00
  Pulay mixing of updated and previous charge densities.

  Evaluating partitioned Hartree potential by multipole expansion.
  | Analytical far-field extrapolation by fixed multipoles:
  | Hartree multipole sum: apparent total charge =  -0.526660E-03
  Summing up the Hartree potential.
  Time summed over all CPUs for potential: real work        0.286 s, elapsed        0.286 s
  | RMS charge density error from multipole expansion :   0.258065E-01

  Integrating Hamiltonian matrix: batch-based integration.
  Time summed over all CPUs for integration: real work        0.498 s, elapsed        0.498 s

  Updating Kohn-Sham eigenvalues and eigenvectors using ELSI and the ELPA eigensolver.
  Finished Cholesky decomposition
  | Time :     0.000 s
  Finished transformation to standard eigenproblem
  | Time :     0.000 s
  Starting LAPACK eigensolver
  Finished solving standard eigenproblem
  | Time :     0.002 s
  Finished back-transformation of eigenvectors
  | Time :     0.000 s

  Obtaining occupation numbers and chemical potential using ELSI.
  | Chemical potential (Fermi level):    -5.38530017eV
  Highest occupied state (VBM) at     -5.52638219 eV
  | Occupation number:      2.00000000

  Lowest unoccupied state (CBM) at    -1.61239694 eV
  | Occupation number:      0.00000000

  Overall HOMO-LUMO gap:      3.91398525 eV.

  Total energy components:
  | Sum of eigenvalues            :        -180.63056453 Ha       -4915.20774391 eV
  | XC energy correction          :         -42.64508708 Ha       -1160.43186148 eV
  | XC potential correction       :          54.82703025 Ha        1491.91940108 eV
  | Free-atom electrostatic energy:        -146.86101462 Ha       -3996.29153691 eV
  | Hartree energy correction     :          -8.16706033 Ha        -222.23701879 eV
  | vdW energy correction         :           0.00000000 Ha           0.00000000 eV
  | Entropy correction            :          -0.00000000 Ha          -0.00000000 eV
  | ---------------------------
  | Total energy                  :        -323.47669631 Ha       -8802.24876001 eV
  | Total energy, T -> 0          :        -323.47669631 Ha       -8802.24876001 eV  <-- do not rely on this value for anything but (periodic) metals
  | Electronic free energy        :        -323.47669631 Ha       -8802.24876001 eV

  Derived energy quantities:
  | Kinetic energy                :         322.63525776 Ha        8779.35205207 eV
  | Electrostatic energy          :        -603.46686699 Ha      -16421.16895060 eV
  | Energy correction for multipole
  | error in Hartree potential    :           0.04078337 Ha           1.10977205 eV
  | Sum of eigenvalues per atom                           :        -378.09290338 eV
  | Total energy (T->0) per atom                          :        -677.09605846 eV  <-- do not rely on this value for anything but (periodic) metals
  | Electronic free energy per atom                       :        -677.09605846 eV

  Self-consistency convergence accuracy:
  | Change of charge density      :  0.1066E-01
  | Change of sum of eigenvalues  :  0.5906E+00 eV
  | Change of total energy        :  0.1130E-02 eV

  End self-consistency iteration #     6       :  max(cpu_time)    wall_clock(cpu1)
  | Time for this iteration                    :        1.198 s           1.198 s
  | Charge density update                      :        0.390 s           0.390 s
  | Density mixing                             :        0.012 s           0.012 s
  | Hartree multipole update                   :        0.009 s           0.009 s
  | Hartree multipole summation                :        0.286 s           0.286 s
  | Integration                                :        0.498 s           0.499 s
  | Solution of K.-S. eqns.                    :        0.002 s           0.002 s
  | Total energy evaluation                    :        0.000 s           0.000 s

  Partial memory accounting:
  | Current value for overall tracked memory usage on task 0  :           0.166 MB
  | Peak value for overall tracked memory usage on task 0     :           0.696 MB after allocating gradient_basis_wave
  | Largest tracked array allocation on task 0 so far         :           0.397 MB  when allocating gradient_basis_wave
  Note:  These values currently only include a subset of arrays which are explicitly tracked.
  The "true" memory usage will be greater.
------------------------------------------------------------

------------------------------------------------------------
          Begin self-consistency iteration #    7

  Date     :  20200710, Time     :  145302.196
------------------------------------------------------------
  Evaluating new KS density.
  Integration grid: deviation in total charge (<rho> - N_e) =   0.000000E+00
  Pulay mixing of updated and previous charge densities.

  Evaluating partitioned Hartree potential by multipole expansion.
  | Analytical far-field extrapolation by fixed multipoles:
  | Hartree multipole sum: apparent total charge =  -0.527201E-03
  Summing up the Hartree potential.
  Time summed over all CPUs for potential: real work        0.283 s, elapsed        0.283 s
  | RMS charge density error from multipole expansion :   0.258938E-01

  Integrating Hamiltonian matrix: batch-based integration.
  Time summed over all CPUs for integration: real work        0.497 s, elapsed        0.497 s

  Updating Kohn-Sham eigenvalues and eigenvectors using ELSI and the ELPA eigensolver.
  Finished Cholesky decomposition
  | Time :     0.000 s
  Finished transformation to standard eigenproblem
  | Time :     0.000 s
  Starting LAPACK eigensolver
  Finished solving standard eigenproblem
  | Time :     0.002 s
  Finished back-transformation of eigenvectors
  | Time :     0.000 s

[...]
  |   Hirshfeld dipole moment :      0.05739387
  |   Hirshfeld second moments:      0.01466817      -0.03175632      -0.01970635
  |                                 -0.03175632      -0.02369858       0.00877084
  |                                 -0.01970635       0.00877084      -0.01622802
  ----------------------------------------------------------------------
  | Atom    12: O
  |   Hirshfeld charge        :     -0.16857868
  |   Free atom volume        :     23.61338643
  |   Hirshfeld volume        :     20.92346500
  |   Hirshfeld dipole vector :      0.00611519       0.04219064       0.01146498
  |   Hirshfeld dipole moment :      0.04414625
  |   Hirshfeld second moments:      0.11247404      -0.00632086      -0.00395090
  |                                 -0.00632086       0.02544117       0.01212845
  |                                 -0.00395090       0.01212845       0.02788475
  ----------------------------------------------------------------------
  | Atom    13: H
  |   Hirshfeld charge        :      0.18409793
  |   Free atom volume        :      9.95071624
  |   Hirshfeld volume        :      6.07316348
  |   Hirshfeld dipole vector :     -0.12003168       0.04310920       0.01694164
  |   Hirshfeld dipole moment :      0.12865857
  |   Hirshfeld second moments:      0.12541241       0.00354263      -0.00078283
  |                                  0.00354263       0.11193204       0.00636418
  |                                 -0.00078283       0.00636418       0.11473816
  ----------------------------------------------------------------------


  Total energy components:
  | Sum of eigenvalues            :        -180.63248277 Ha       -4915.25994175 eV
  | XC energy correction          :         -42.64146909 Ha       -1160.33341116 eV
  | XC potential correction       :          54.82243390 Ha        1491.79432820 eV
  | Free-atom electrostatic energy:        -146.86101462 Ha       -3996.29153691 eV
  | Hartree energy correction     :          -8.16413760 Ha        -222.15748731 eV
  | vdW energy correction         :          -0.00332694 Ha          -0.09053077 eV
  | Entropy correction            :          -0.00000000 Ha          -0.00000000 eV
  | ---------------------------
  | Total energy                  :        -323.47999712 Ha       -8802.33857969 eV
  | Total energy, T -> 0          :        -323.47999712 Ha       -8802.33857969 eV  <-- do not rely on this value for anything but (periodic) metals
  | Electronic free energy        :        -323.47999712 Ha       -8802.33857969 eV

  Derived energy quantities:
  | Kinetic energy                :         322.59757179 Ha        8778.32656484 eV
  | Electrostatic energy          :        -603.43277288 Ha      -16420.24120261 eV
  | Energy correction for multipole
  | error in Hartree potential    :           0.04081615 Ha           1.11066392 eV
  | Sum of eigenvalues per atom                           :        -378.09691860 eV
  | Total energy (T->0) per atom                          :        -677.10296767 eV  <-- do not rely on this value for anything but (periodic) metals
  | Electronic free energy per atom                       :        -677.10296767 eV

  atomic forces [eV/Ang]:
  -----------------------
  atom #    1
   Hellmann-Feynman              :  0.256227E+00 -0.548857E+00  0.919857E+00
   Ionic forces                  :  0.000000E+00  0.000000E+00  0.000000E+00
   Multipole                     : -0.976030E-01  0.243683E+00 -0.236039E+00
   Pulay + GGA                   : -0.767357E+00  0.363047E+00 -0.139706E+01
   Van der Waals                 :  0.589074E-02  0.427541E-02 -0.192127E-02
   ----------------------------------------------------------------
   Total forces(   1)            : -0.602842E+00  0.621496E-01 -0.715168E+00
  atom #    2
   Hellmann-Feynman              :  0.311784E+00  0.104649E-01 -0.723446E-01
   Ionic forces                  :  0.000000E+00  0.000000E+00  0.000000E+00
   Multipole                     :  0.178394E+00  0.395476E-01 -0.233888E-01
   Pulay + GGA                   : -0.159473E+00  0.330063E-01  0.127443E-01
   Van der Waals                 :  0.418248E-02 -0.265937E-02 -0.542311E-02
   ----------------------------------------------------------------
   Total forces(   2)            :  0.334887E+00  0.803594E-01 -0.884122E-01
  atom #    3
   Hellmann-Feynman              :  0.565232E+01  0.927460E+01 -0.448512E+01
   Ionic forces                  :  0.000000E+00  0.000000E+00  0.000000E+00
   Multipole                     : -0.164485E+00  0.158440E+00 -0.929256E+00
   Pulay + GGA                   : -0.457649E+01 -0.882215E+01  0.609444E+01
   Van der Waals                 :  0.693364E-02 -0.144815E-02 -0.118878E-01
   ----------------------------------------------------------------
   Total forces(   3)            :  0.918282E+00  0.609441E+00  0.668170E+00
  atom #    4
   Hellmann-Feynman              : -0.245945E+00 -0.124697E+00 -0.826544E-01
   Ionic forces                  :  0.000000E+00  0.000000E+00  0.000000E+00
   Multipole                     : -0.233327E-01 -0.791509E-01 -0.766920E-01
   Pulay + GGA                   : -0.349245E-01  0.218421E+00  0.703133E-01
   Van der Waals                 : -0.259596E-02  0.420759E-02 -0.287830E-02
   ----------------------------------------------------------------
   Total forces(   4)            : -0.306798E+00  0.187803E-01 -0.919114E-01
  atom #    5
   Hellmann-Feynman              : -0.304366E+00 -0.211289E+00 -0.843312E-01
   Ionic forces                  :  0.000000E+00  0.000000E+00  0.000000E+00
   Multipole                     : -0.908397E-01 -0.220898E-01 -0.425737E-01
   Pulay + GGA                   :  0.238936E+00  0.661237E-01 -0.753809E-01
   Van der Waals                 : -0.399810E-03  0.974418E-02 -0.162449E-01
   ----------------------------------------------------------------
   Total forces(   5)            : -0.156669E+00 -0.157511E+00 -0.218531E+00
  atom #    6
   Hellmann-Feynman              :  0.432267E+00 -0.296109E+00  0.221379E+00
   Ionic forces                  :  0.000000E+00  0.000000E+00  0.000000E+00
   Multipole                     : -0.176012E+00  0.630231E+00  0.249380E+00
   Pulay + GGA                   :  0.429876E-01 -0.707009E+00 -0.484831E+00
   Van der Waals                 : -0.250293E-02  0.322252E-02 -0.249485E-02
   ----------------------------------------------------------------
   Total forces(   6)            :  0.296740E+00 -0.369664E+00 -0.165665E-01
  atom #    7
   Hellmann-Feynman              : -0.278458E+00 -0.494327E-01 -0.409106E-01
   Ionic forces                  :  0.000000E+00  0.000000E+00  0.000000E+00
   Multipole                     : -0.116577E+00  0.502198E-01  0.365001E-01
   Pulay + GGA                   :  0.106967E+00  0.483112E-01  0.286342E-01
   Van der Waals                 : -0.270825E-02  0.262659E-02  0.866565E-02
   ----------------------------------------------------------------
   Total forces(   7)            : -0.290776E+00  0.517249E-01  0.328894E-01
  atom #    8
   Hellmann-Feynman              :  0.273149E-01 -0.781063E-01  0.130834E+00
   Ionic forces                  :  0.000000E+00  0.000000E+00  0.000000E+00
   Multipole                     :  0.155249E-01  0.692726E-01  0.128707E+00
   Pulay + GGA                   : -0.392969E-01 -0.399522E-01 -0.101597E+00
   Van der Waals                 : -0.322500E-02  0.110840E-01  0.118561E-02
   ----------------------------------------------------------------
   Total forces(   8)            :  0.317862E-03 -0.377020E-01  0.159130E+00
  atom #    9
   Hellmann-Feynman              :  0.617783E-01  0.451030E-01 -0.172056E+00
   Ionic forces                  :  0.000000E+00  0.000000E+00  0.000000E+00
   Multipole                     :  0.233139E-01  0.131682E+00 -0.937209E-02
   Pulay + GGA                   : -0.422340E-01 -0.116512E+00  0.215228E-01
   Van der Waals                 : -0.336941E-02  0.207973E-02  0.326457E-02
   ----------------------------------------------------------------
   Total forces(   9)            :  0.394888E-01  0.623525E-01 -0.156640E+00
  atom #   10
   Hellmann-Feynman              :  0.332275E+01  0.580950E+01  0.246517E+01
   Ionic forces                  :  0.000000E+00  0.000000E+00  0.000000E+00
   Multipole                     :  0.102779E+00 -0.448318E-01  0.247506E+00
   Pulay + GGA                   : -0.108998E+01 -0.377086E+01 -0.486678E+00
   Van der Waals                 :  0.515926E-02 -0.167545E-01  0.886521E-02
   ----------------------------------------------------------------
   Total forces(  10)            :  0.234071E+01  0.197706E+01  0.223487E+01
  atom #   11
   Hellmann-Feynman              :  0.380528E+01 -0.224389E+01  0.137746E+02
   Ionic forces                  :  0.000000E+00  0.000000E+00  0.000000E+00
   Multipole                     :  0.107149E+00 -0.623643E+00  0.778182E+00
   Pulay + GGA                   : -0.300113E+01  0.342790E+01 -0.135517E+02
   Van der Waals                 : -0.778138E-03 -0.117189E-01  0.322592E-02
   ----------------------------------------------------------------
   Total forces(  11)            :  0.910524E+00  0.548640E+00  0.100427E+01
  atom #   12
   Hellmann-Feynman              :  0.172534E+01 -0.129220E+02 -0.895339E+01
   Ionic forces                  :  0.000000E+00  0.000000E+00  0.000000E+00
   Multipole                     : -0.685708E+00 -0.147372E+01 -0.397012E+00
   Pulay + GGA                   : -0.365308E+01  0.122121E+02  0.718795E+01
   Van der Waals                 : -0.690319E-04 -0.175679E-02  0.108349E-01
   ----------------------------------------------------------------
   Total forces(  12)            : -0.261352E+01 -0.218539E+01 -0.215161E+01
  atom #   13
   Hellmann-Feynman              : -0.117395E+01 -0.431063E+00 -0.637296E+00
   Ionic forces                  :  0.000000E+00  0.000000E+00  0.000000E+00
   Multipole                     : -0.563645E-01  0.977735E-02  0.137734E-01
   Pulay + GGA                   :  0.360905E+00 -0.236105E+00 -0.442278E-01
   Van der Waals                 : -0.651759E-02 -0.290227E-02  0.480837E-02
   ----------------------------------------------------------------
   Total forces(  13)            : -0.875925E+00 -0.660293E+00 -0.662942E+00

  Timings for VdW correction (Tkatchenko-Scheffler 2009 or later):
  | CPU time:        0.091 s, Wall clock time:        0.092 s.
  Removing unitary transformations (pure translations, rotations) from forces on atoms.
  Atomic forces before filtering:
  | Net force on center of mass :  -0.557928E-02 -0.585337E-04 -0.245545E-02 eV/A
  | Net torque on center of mass:  -0.464721E-02  0.239947E-02 -0.779722E-02 eV
  Atomic forces after filtering:
  | Net force on center of mass :   0.000000E+00 -0.446015E-15 -0.802828E-15 eV/A
  | Net torque on center of mass:  -0.238381E-14  0.377634E-15  0.113290E-14 eV

  Energy and forces in a compact form:
  | Total energy uncorrected      :         -0.880233857969397E+04 eV
  | Total energy corrected        :         -0.880233857969397E+04 eV  <-- do not rely on this value for anything but (periodic) metals
  | Electronic free energy        :         -0.880233857969397E+04 eV
  Total atomic forces (unitary forces cleaned) [eV/Ang]:
  |   1         -0.602435153979172E+00          0.623125564323481E-01         -0.714927301486478E+00
  |   2          0.335294556766785E+00          0.808091413316264E-01         -0.880983787859439E-01
  |   3          0.918783672449979E+00          0.609659945247927E+00          0.668378136227199E+00
  |   4         -0.306035210296734E+00          0.191251353503162E-01         -0.917990033845270E-01
  |   5         -0.156193781810348E+00         -0.157557425479475E+00         -0.218377711601039E+00
  |   6          0.296767172335122E+00         -0.369724839047510E+00         -0.161972355119464E-01
  |   7         -0.290757618299290E+00          0.513755506089861E-01          0.331887678667130E-01
  |   8          0.272377090747043E-03         -0.378004034042177E-01          0.159525056220877E+00
  |   9          0.393138962025888E-01          0.624515191366501E-01         -0.156131194964814E+00
  |  10          0.234140857095536E+01          0.197702033569056E+01          0.223491387026299E+01
  |  11          0.911215425479898E+00          0.548534575338446E+00          0.100430169373633E+01
  |  12         -0.261255830622919E+01         -0.218552869485526E+01         -0.215171828642203E+01
  |  13         -0.875075600665745E+00         -0.660677396350396E+00         -0.663058412157335E+00

  ------------------------------------ 
  Start decomposition of the XC Energy 
  ------------------------------------ 
  X and C from original XC functional choice 
  Hartree-Fock Energy :          0.000000000 Ha              0.000000000 eV
  X Energy            :        -41.040580583 Ha          -1116.771018360 eV
  C Energy            :         -1.600888511 Ha            -43.562392801 eV
  Total XC Energy     :        -42.641469094 Ha          -1160.333411161 eV
  ------------------------------------ 
  LDA X and C from self-consistent density 
  X Energy LDA        :        -37.259407894 Ha          -1013.880074435 eV
  C Energy LDA        :         -3.138789997 Ha            -85.410821474 eV
  ------------------------------------ 
  End decomposition of the XC Energy 
  ------------------------------------ 

------------------------------------------------------------

------------------------------------------------------------------------------
  Final output of selected total energy values:

  The following output summarizes some interesting total energy values
  at the end of a run (AFTER all relaxation, molecular dynamics, etc.).

  | Total energy of the DFT / Hartree-Fock s.c.f. calculation      :          -8802.338579694 eV
  | Final zero-broadening corrected energy (caution - metals only) :          -8802.338579694 eV
  | For reference only, the value of 1 Hartree used in FHI-aims is :             27.211384500 eV

  Before relying on these values, please be sure to understand exactly which
  total energy value is referred to by a given number. Different objects may
  all carry the same name 'total energy'. Definitions:

  Total energy of the DFT / Hartree-Fock s.c.f. calculation:
  | Note that this energy does not include ANY quantities calculated after the
  | s.c.f. cycle, in particular not ANY RPA, MP2, etc. many-body perturbation terms.

  Final zero-broadening corrected energy:
  | For metallic systems only, a broadening of the occupation numbers at the Fermi
  | level can be extrapolated back to zero broadening by an electron-gas inspired
  | formula. For all systems that are not real metals, this value can be
  | meaningless and should be avoided.

------------------------------------------------------------------------------
  Methods described in the following list of references were used in this FHI-aims run.
  If you publish the results, please make sure to cite these reference if they apply.
  FHI-aims is an academic code, and for our developers (often, Ph.D. students
  and postdocs), scientific credit in the community is essential.
  Thank you for helping us!

  For any use of FHI-aims, please cite:

    Volker Blum, Ralf Gehrke, Felix Hanke, Paula Havu, Ville Havu,
    Xinguo Ren, Karsten Reuter, and Matthias Scheffler
    'Ab initio molecular simulations with numeric atom-centered orbitals'
    Computer Physics Communications 180, 2175-2196 (2009)
    http://dx.doi.org/10.1016/j.cpc.2009.06.022


  The scalable eigensolver library ELPA was used in your run.
  ELPA is essential especially for large systems on hundreds or thousands of CPUs.
  For ELPA, please cite:

    Andreas Marek, Volker Blum, Rainer Johanni, Ville Havu, Bruno Lang,
    Thomas Auckenthaler, Alexander Heinecke, Hans-Joachim Bungartz, and Hermann Lederer,
    'The ELPA Library - Scalable Parallel Eigenvalue Solutions
    for Electronic Structure Theory and Computational Science'
    The Journal of Physics: Condensed Matter 26, 213201 (2014).
    http://dx.doi.org/10.1088/0953-8984/26/21/213201


  The ELSI infrastructure was used in your run to solve the Kohn-Sham electronic structure.
  Please check out http://elsi-interchange.org to learn more.
  If scalability is important for your project, please acknowledge ELSI by citing:

    V. W-z. Yu, F. Corsetti, A. Garcia, W. P. Huhn, M. Jacquelin, W. Jia,
    B. Lange, L. Lin, J. Lu, W. Mi, A. Seifitokaldani, A. Vazquez-Mayagoitia,
    C. Yang, H. Yang, and V. Blum
    'ELSI: A unified software interface for Kohn-Sham electronic structure solvers'
    Computer Physics Communications 222, 267-285 (2018).
    http://dx.doi.org/10.1016/j.cpc.2017.09.007


  For the real-space grid partitioning and parallelization used in this calculation, please cite:

    Ville Havu, Volker Blum, Paula Havu, and Matthias Scheffler,
    'Efficient O(N) integration for all-electron electronic structure calculation'
    'using numerically tabulated basis functions'
    Journal of Computational Physics 228, 8367-8379 (2009).
    http://dx.doi.org/10.1016/j.jcp.2009.08.008

  Of course, there are many other important community references, e.g., those cited in the
  above references. Our list is limited to references that describe implementations in the
  FHI-aims code. The reason is purely practical (length of this list) - please credit others as well.

------------------------------------------------------------
          Leaving FHI-aims.
          Date     :  20200710, Time     :  145316.626

          Computational steps:
          | Number of self-consistency cycles          :           16
          | Number of SCF (re)initializations          :            1

          Detailed time accounting                     :  max(cpu_time)    wall_clock(cpu1)
          | Total time                                 :       22.894 s          22.949 s
          | Preparation time                           :        0.147 s           0.148 s
          | Boundary condition initalization           :        0.000 s           0.000 s
          | Grid partitioning                          :        0.112 s           0.113 s
          | Preloading free-atom quantities on grid    :        0.002 s           0.002 s
          | Free-atom superposition energy             :        0.085 s           0.085 s
          | Total time for integrations                :        8.714 s           8.726 s
          | Total time for solution of K.-S. equations :        0.037 s           0.039 s
          | Total time for density & force components  :        7.227 s           7.229 s
          | Total time for mixing                      :        0.219 s           0.224 s
          | Total time for Hartree multipole update    :        0.142 s           0.143 s
          | Total time for Hartree multipole sum       :        5.803 s           5.812 s
          | Total time for total energy evaluation     :        0.003 s           0.006 s
          | Total time for vdW correction              :        0.091 s           0.092 s

          Partial memory accounting:
          | Residual value for overall tracked memory usage across tasks :           0.000 MB (should be 0.000 MB)
          | Peak values for overall tracked memory usage (after allocating hessian_basis_wave):
          |   Minimum:        1.622 MB (on task 1)
          |   Maximum:        1.622 MB (on task 1)
          |   Average:        1.622 MB
          | Largest tracked array allocation (hessian_basis_wave):
          |   Minimum:        0.794 MB (on task 1)
          |   Maximum:        0.794 MB (on task 1)
          |   Average:        0.794 MB
          Note:  These values currently only include a subset of arrays which are explicitly tracked.
          The "true" memory usage will be greater.

          Have a nice day.
------------------------------------------------------------
