  MPI-parallelism will be employed.
------------------------------------------------------------
          Invoking FHI-aims ...
          Version 171221_1
          Compiled on 2019/09/09 at 14:39:39 on host puhti-login2.bullx.

          When using FHI-aims, please cite the following reference:

          Volker Blum, Ralf Gehrke, Felix Hanke, Paula Havu,
          Ville Havu, Xinguo Ren, Karsten Reuter, and Matthias Scheffler,
          'Ab Initio Molecular Simulations with Numeric Atom-Centered Orbitals',
          Computer Physics Communications 180, 2175-2196 (2009)

          For any questions about FHI-aims, please visit the aimsclub website
          with its forums and wiki. Contributions to both the forums and the
          wiki are warmly encouraged - they are for you, and everyone is welcome there.

------------------------------------------------------------



  Date     :  20200815, Time     :  003840.492
  Time zero on CPU 1             :   0.119990000000000E-01  s.
  Internal wall clock time zero  :           366683920.492  s.

  FHI-aims created a unique identifier for this run for later identification
  aims_uuid : 4229874A-2B0D-44C2-A046-3C0B896F286B

  Using        1 parallel tasks.
  Task        0 on host r16c11.bullx reporting.

  Performing system and environment tests:
  | Environment variable OMP_NUM_THREADS correctly set to 1.
  | Stacksize not measured: no C compiler
  | Checking for scalapack...
  | Testing pdtran()...
  | All pdtran() tests passed.

  Obtaining array dimensions for all initial allocations:
  
  -----------------------------------------------------------------------
  Parsing control.in (first pass over file, find array dimensions only).
  The contents of control.in will be repeated verbatim below
  unless switched off by setting 'verbatim_writeout .false.' .
  in the first line of control.in .
  -----------------------------------------------------------------------
  
  #########################################################################################
  #
  #  Volker Blum, FHI 2009 : Test run input file control.in for simple H2O
  #
  #########################################################################################
  #
  #  Physical model
  #
    xc                 pbe
    vdw_correction_hirshfeld
    spin               none
    relativistic       none
    charge             0.
  #
  #  SCF convergence
  #
    occupation_type    gaussian 0.01
    mixer              pulay
      n_max_pulay        10
      charge_mix_param   0.2
    sc_accuracy_rho    1E-5
    sc_accuracy_eev    1E-3
    sc_accuracy_etot   1E-6
    sc_accuracy_forces 1E-4
    sc_iter_limit      100
  #
  #  Relaxation
  #
  #  relax_geometry   bfgs 1.e-3
  #
  ################################################################################
  #
  #  FHI-aims code project
  #  VB, Fritz-Haber Institut, 2009
  #
  #  Suggested "light" defaults for H atom (to be pasted into control.in file)
  #  Be sure to double-check any results obtained with these settings for post-processing,
  #  e.g., with the "tight" defaults and larger basis sets.
  #
  ################################################################################
    species        H
  #     global species definitions
      nucleus             1
      mass                1.00794
  #
      l_hartree           4
  #
      cut_pot             3.5  1.5  1.0
      basis_dep_cutoff    1e-4
  #
      radial_base         24 5.0
      radial_multiplier   1
      angular_grids       specified
        division   0.2421   50
        division   0.3822  110
        division   0.4799  194
        division   0.5341  302
  #      division   0.5626  434
  #      division   0.5922  590
  #      division   0.6542  770
  #      division   0.6868 1202
  #      outer_grid  770
        outer_grid  302
  ################################################################################
  #
  #  Definition of "minimal" basis
  #
  ################################################################################
  #     valence basis states
      valence      1  s   1.
  #     ion occupancy
      ion_occ      1  s   0.5
  ################################################################################
  #
  #  Suggested additional basis functions. For production calculations,
  #  uncomment them one after another (the most important basis functions are
  #  listed first).
  #
  #  Basis constructed for dimers: 0.5 A, 0.7 A, 1.0 A, 1.5 A, 2.5 A
  #
  ################################################################################
  #  "First tier" - improvements: -1014.90 meV to -62.69 meV
       hydro 2 s 2.1
       hydro 2 p 3.5
  #  "Second tier" - improvements: -12.89 meV to -1.83 meV
  #     hydro 1 s 0.85
  #     hydro 2 p 3.7
  #     hydro 2 s 1.2
  #     hydro 3 d 7
  #  "Third tier" - improvements: -0.25 meV to -0.12 meV
  #     hydro 4 f 11.2
  #     hydro 3 p 4.8
  #     hydro 4 d 9
  #     hydro 3 s 3.2
  ################################################################################
  #
  #  FHI-aims code project
  #  VB, Fritz-Haber Institut, 2009
  #
  #  Suggested "light" defaults for C atom (to be pasted into control.in file)
  #  Be sure to double-check any results obtained with these settings for post-processing,
  #  e.g., with the "tight" defaults and larger basis sets.
  #
  ################################################################################
    species        C
  #     global species definitions
      nucleus             6
      mass                12.0107
  #
      l_hartree           4
  #
      cut_pot             3.5  1.5  1.0
      basis_dep_cutoff    1e-4
  #
      radial_base         34 5.0
      radial_multiplier   1
      angular_grids specified
        division   0.3326   50
        division   0.5710  110
        division   0.7727  194
        division   0.8772  302
  #      division   0.9334  434
  #      division   0.9625  590
  #      division   0.9924  770
  #      division   1.0230  974
  #      division   1.4589 1202
  #     outer_grid  974
       outer_grid 302
  ################################################################################
  #
  #  Definition of "minimal" basis
  #
  ################################################################################
  #     valence basis states
      valence      2  s   2.
      valence      2  p   2.
  #     ion occupancy
      ion_occ      2  s   1.
      ion_occ      2  p   1.
  ################################################################################
  #
  #  Suggested additional basis functions. For production calculations,
  #  uncomment them one after another (the most important basis functions are
  #  listed first).
  #
  #  Constructed for dimers: 1.0 A, 1.25 A, 1.5 A, 2.0 A, 3.0 A
  #
  ################################################################################
  #  "First tier" - improvements: -1214.57 meV to -155.61 meV
       hydro 2 p 1.7
       hydro 3 d 6
       hydro 2 s 4.9
  #  "Second tier" - improvements: -67.75 meV to -5.23 meV
  #     hydro 4 f 9.8
  #     hydro 3 p 5.2
  #     hydro 3 s 4.3
  #     hydro 5 g 14.4
  #     hydro 3 d 6.2
  #  "Third tier" - improvements: -2.43 meV to -0.60 meV
  #     hydro 2 p 5.6
  #     hydro 2 s 1.4
  #     hydro 3 d 4.9
  #     hydro 4 f 11.2
  #  "Fourth tier" - improvements: -0.39 meV to -0.18 meV
  #     hydro 2 p 2.1
  #     hydro 5 g 16.4
  #     hydro 4 d 13.2
  #     hydro 3 s 13.6
  #     hydro 4 f 17.6
  #  Further basis functions - improvements: -0.08 meV and below
  #     hydro 3 s 2
  #     hydro 3 p 6
  #     hydro 4 d 20
  ################################################################################
  #
  #  FHI-aims code project
  #  VB, Fritz-Haber Institut, 2009
  #
  #  Suggested "light" defaults for N atom (to be pasted into control.in file)
  #  Be sure to double-check any results obtained with these settings for post-processing,
  #  e.g., with the "tight" defaults and larger basis sets.
  #
  ################################################################################
    species        N
  #     global species definitions
      nucleus             7
      mass                14.0067
  #
      l_hartree           4
  #
      cut_pot             3.5  1.5  1.0
      basis_dep_cutoff    1e-4
  #
      radial_base         35 5.0
      radial_multiplier   1
      angular_grids       specified
        division   0.2599   50
        division   0.4601  110
        division   0.5885  194
        division   0.6503  302
  #      division   0.6939  434
  #      division   0.7396  590
  #      division   0.7632  770
  #      division   0.8122  974
  #      division   1.1604 1202
  #      outer_grid  974
        outer_grid  302
  ################################################################################
  #
  #  Definition of "minimal" basis
  #
  ################################################################################
  #     valence basis states
      valence      2  s   2.
      valence      2  p   3.
  #     ion occupancy
      ion_occ      2  s   1.
      ion_occ      2  p   2.
  ################################################################################
  #
  #  Suggested additional basis functions. For production calculations,
  #  uncomment them one after another (the most important basis functions are
  #  listed first).
  #
  #  Constructed for dimers: 1.0 A, 1.1 A, 1.5 A, 2.0 A, 3.0 A
  #
  ################################################################################
  #  "First tier" - improvements: -1193.42 meV to -220.60 meV
       hydro 2 p 1.8
       hydro 3 d 6.8
       hydro 3 s 5.8
  #  "Second tier" - improvements: -80.21 meV to -6.86 meV
  #     hydro 4 f 10.8
  #     hydro 3 p 5.8
  #     hydro 1 s 0.8
  #     hydro 5 g 16
  #     hydro 3 d 4.9
  #  "Third tier" - improvements: -4.29 meV to -0.53 meV
  #     hydro 3 s 16
  #     ionic 2 p auto
  #     hydro 3 d 6.6
  #     hydro 4 f 11.6
  #  "Fourth tier" - improvements: -0.75 meV to -0.25 meV
  #     hydro 2 p 4.5
  #     hydro 2 s 2.4
  #     hydro 5 g 14.4
  #     hydro 4 d 14.4
  #     hydro 4 f 16.8
  # Further basis functions - -0.21 meV and below
  #     hydro 3 p 14.8
  #     hydro 3 s 4.4
  #     hydro 3 d 19.6
  #     hydro 5 g 12.8
  ################################################################################
  #
  #  FHI-aims code project
  #  VB, Fritz-Haber Institut, 2009
  #
  #  Suggested "light" defaults for O atom (to be pasted into control.in file)
  #  Be sure to double-check any results obtained with these settings for post-processing,
  #  e.g., with the "tight" defaults and larger basis sets.
  #
  ################################################################################
    species        O
  #     global species definitions
      nucleus             8
      mass                15.9994
  #
      l_hartree           4
  #
      cut_pot             3.5  1.5  1.0
      basis_dep_cutoff    1e-4
  #
      radial_base         36 5.0
      radial_multiplier   1
       angular_grids specified
        division   0.2659   50
        division   0.4451  110
        division   0.6052  194
        division   0.7543  302
  #      division   0.8014  434
  #      division   0.8507  590
  #      division   0.8762  770
  #      division   0.9023  974
  #      division   1.2339 1202
  #      outer_grid 974
        outer_grid 302
  ################################################################################
  #
  #  Definition of "minimal" basis
  #
  ################################################################################
  #     valence basis states
      valence      2  s   2.
      valence      2  p   4.
  #     ion occupancy
      ion_occ      2  s   1.
      ion_occ      2  p   3.
  ################################################################################
  #
  #  Suggested additional basis functions. For production calculations,
  #  uncomment them one after another (the most important basis functions are
  #  listed first).
  #
  #  Constructed for dimers: 1.0 A, 1.208 A, 1.5 A, 2.0 A, 3.0 A
  #
  ################################################################################
  #  "First tier" - improvements: -699.05 meV to -159.38 meV
       hydro 2 p 1.8
       hydro 3 d 7.6
       hydro 3 s 6.4
  #  "Second tier" - improvements: -49.91 meV to -5.39 meV
  #     hydro 4 f 11.6
  #     hydro 3 p 6.2
  #     hydro 3 d 5.6
  #     hydro 5 g 17.6
  #     hydro 1 s 0.75
  #  "Third tier" - improvements: -2.83 meV to -0.50 meV
  #     ionic 2 p auto
  #     hydro 4 f 10.8
  #     hydro 4 d 4.7
  #     hydro 2 s 6.8
  #  "Fourth tier" - improvements: -0.40 meV to -0.12 meV
  #     hydro 3 p 5
  #     hydro 3 s 3.3
  #     hydro 5 g 15.6
  #     hydro 4 f 17.6
  #     hydro 4 d 14
  # Further basis functions - -0.08 meV and below
  #     hydro 3 s 2.1
  #     hydro 4 d 11.6
  #     hydro 3 p 16
  #     hydro 2 s 17.2
  
  -----------------------------------------------------------------------
  Completed first pass over input file control.in .
  -----------------------------------------------------------------------
  
  
  -----------------------------------------------------------------------
  Parsing geometry.in (first pass over file, find array dimensions only).
  The contents of geometry.in will be repeated verbatim below
  unless switched off by setting 'verbatim_writeout .false.' .
  in the first line of geometry.in .
  -----------------------------------------------------------------------
  
  atom  0.00000 0.00000 0.00000 C
  atom  1.09300 0.00000 0.00000 H
  atom  -0.47961 0.00000 -1.41207 N
  atom  0.11982 -0.61731 -1.96110 H
  atom  -1.44069 -0.33480 -1.43084 H
  atom  -0.49584 1.26211 0.72868 C
  atom  -1.58789 1.28919 0.74431 H
  atom  -0.13407 1.27425 1.75947 H
  atom  -0.13407 2.16087 0.22380 H
  atom  -0.39425 -1.28861 0.74398 C
  atom  -0.10189 -1.56493 1.88303 O
  atom  -1.10210 -2.13717 0.06896 O
  atom  -1.96552 -1.95926 0.47863 H
  
  -----------------------------------------------------------------------
  Completed first pass over input file geometry.in .
  -----------------------------------------------------------------------
  

  Basic array size parameters:
  | Number of species                 :        4
  | Number of atoms                   :       13
  | Max. basis fn. angular momentum   :        2
  | Max. atomic/ionic basis occupied n:        2
  | Max. number of basis fn. types    :        2
  | Max. radial fns per species/type  :        3
  | Max. logarithmic grid size        :     1301
  | Max. radial integration grid size :       36
  | Max. angular integration grid size:      302
  | Max. angular grid division number :        8
  | Radial grid for Hartree potential :     1301
  | Number of spin channels           :        1

------------------------------------------------------------
          Reading file control.in.
------------------------------------------------------------
  XC: Using PBE gradient-corrected functionals.
  Spin treatment: No spin polarisation.
  Non-relativistic treatment of kinetic energy.
  Charge =   0.000000E+00: Neutral system requested explicitly.
  Occupation type: Gaussian broadening, width =   0.100000E-01 eV.
  Using pulay charge density mixing.
  Pulay mixing - number of memorized iterations:   10
  Charge density mixing - mixing parameter:     0.2000
  Convergence accuracy of self-consistent charge density:  0.1000E-04
  Convergence accuracy of sum of eigenvalues:  0.1000E-02
  Convergence accuracy of total energy:  0.1000E-05
  Convergence accuracy of forces:  0.1000E-03
  Maximum number of s.-c. iterations  :   100
 
  Reading configuration options for species H                   .
  | Found nuclear charge :   1.0000
  | Found atomic mass :    1.00794000000000      amu
  | Found l_max for Hartree potential  :   4
  | Found cutoff potl. onset [A], width [A], scale factor :    3.50000    1.50000    1.00000
  | Threshold for basis-dependent cutoff potential is   0.100000E-03
  | Found data for basic radial integration grid :    24 points, outermost radius =    5.000 A
  | Found multiplier for basic radial grid :   1
  | Found angular grid specification: user-specified.
  | Specified grid contains     5 separate shells.
  | Check grid settings after all constraints further below.
  | Found free-atom valence shell :  1 s   1.000
  | No ionic wave fns used. Skipping ion_occ.
  | Found hydrogenic basis function :  2 s   2.100
  | Found hydrogenic basis function :  2 p   3.500
  Species H                   : Missing cutoff potential type.
  Defaulting to exp(1/x)/(1-x)^2 type cutoff potential.
  Species H : No 'logarithmic' tag. Using default grid for free atom:
  | Default logarithmic grid data [bohr] : 0.1000E-03 0.1000E+03 0.1012E+01
  Species H : On-site basis accuracy parameter (for Gram-Schmidt orthonormalisation) not specified.
  Using default value basis_acc =  0.1000000E-03.
  Species H                   : Using default innermost maximum threshold i_radial=  2 for radial functions.
  Species H                   : Default cutoff onset for free atom density etc. : 0.35000000E+01 AA.
  Species H                   : Basic radial grid will be enhanced according to radial_multiplier =   1, to contain    24 grid points.
 
  Reading configuration options for species C                   .
  | Found nuclear charge :   6.0000
  | Found atomic mass :    12.0107000000000      amu
  | Found l_max for Hartree potential  :   4
  | Found cutoff potl. onset [A], width [A], scale factor :    3.50000    1.50000    1.00000
  | Threshold for basis-dependent cutoff potential is   0.100000E-03
  | Found data for basic radial integration grid :    34 points, outermost radius =    5.000 A
  | Found multiplier for basic radial grid :   1
  | Found angular grid specification: user-specified.
  | Specified grid contains     5 separate shells.
  | Check grid settings after all constraints further below.
  | Found free-atom valence shell :  2 s   2.000
  | Found free-atom valence shell :  2 p   2.000
  | No ionic wave fns used. Skipping ion_occ.
  | No ionic wave fns used. Skipping ion_occ.
  | Found hydrogenic basis function :  2 p   1.700
  | Found hydrogenic basis function :  3 d   6.000
  | Found hydrogenic basis function :  2 s   4.900
  Species C                   : Missing cutoff potential type.
  Defaulting to exp(1/x)/(1-x)^2 type cutoff potential.
  Species C : No 'logarithmic' tag. Using default grid for free atom:
  | Default logarithmic grid data [bohr] : 0.1000E-03 0.1000E+03 0.1012E+01
  Species C : On-site basis accuracy parameter (for Gram-Schmidt orthonormalisation) not specified.
  Using default value basis_acc =  0.1000000E-03.
  Species C                   : Using default innermost maximum threshold i_radial=  2 for radial functions.
  Species C                   : Default cutoff onset for free atom density etc. : 0.35000000E+01 AA.
  Species C                   : Basic radial grid will be enhanced according to radial_multiplier =   1, to contain    34 grid points.
 
  Reading configuration options for species N                   .
  | Found nuclear charge :   7.0000
  | Found atomic mass :    14.0067000000000      amu
  | Found l_max for Hartree potential  :   4
  | Found cutoff potl. onset [A], width [A], scale factor :    3.50000    1.50000    1.00000
  | Threshold for basis-dependent cutoff potential is   0.100000E-03
  | Found data for basic radial integration grid :    35 points, outermost radius =    5.000 A
  | Found multiplier for basic radial grid :   1
  | Found angular grid specification: user-specified.
  | Specified grid contains     5 separate shells.
  | Check grid settings after all constraints further below.
  | Found free-atom valence shell :  2 s   2.000
  | Found free-atom valence shell :  2 p   3.000
  | No ionic wave fns used. Skipping ion_occ.
  | No ionic wave fns used. Skipping ion_occ.
  | Found hydrogenic basis function :  2 p   1.800
  | Found hydrogenic basis function :  3 d   6.800
  | Found hydrogenic basis function :  3 s   5.800
  Species N                   : Missing cutoff potential type.
  Defaulting to exp(1/x)/(1-x)^2 type cutoff potential.
  Species N : No 'logarithmic' tag. Using default grid for free atom:
  | Default logarithmic grid data [bohr] : 0.1000E-03 0.1000E+03 0.1012E+01
  Species N : On-site basis accuracy parameter (for Gram-Schmidt orthonormalisation) not specified.
  Using default value basis_acc =  0.1000000E-03.
  Species N                   : Using default innermost maximum threshold i_radial=  2 for radial functions.
  Species N                   : Default cutoff onset for free atom density etc. : 0.35000000E+01 AA.
  Species N                   : Basic radial grid will be enhanced according to radial_multiplier =   1, to contain    35 grid points.
 
  Reading configuration options for species O                   .
  | Found nuclear charge :   8.0000
  | Found atomic mass :    15.9994000000000      amu
  | Found l_max for Hartree potential  :   4
  | Found cutoff potl. onset [A], width [A], scale factor :    3.50000    1.50000    1.00000
  | Threshold for basis-dependent cutoff potential is   0.100000E-03
  | Found data for basic radial integration grid :    36 points, outermost radius =    5.000 A
  | Found multiplier for basic radial grid :   1
  | Found angular grid specification: user-specified.
  | Specified grid contains     5 separate shells.
  | Check grid settings after all constraints further below.
  | Found free-atom valence shell :  2 s   2.000
  | Found free-atom valence shell :  2 p   4.000
  | No ionic wave fns used. Skipping ion_occ.
  | No ionic wave fns used. Skipping ion_occ.
  | Found hydrogenic basis function :  2 p   1.800
  | Found hydrogenic basis function :  3 d   7.600
  | Found hydrogenic basis function :  3 s   6.400
  Species O                   : Missing cutoff potential type.
  Defaulting to exp(1/x)/(1-x)^2 type cutoff potential.
  Species O : No 'logarithmic' tag. Using default grid for free atom:
  | Default logarithmic grid data [bohr] : 0.1000E-03 0.1000E+03 0.1012E+01
  Species O : On-site basis accuracy parameter (for Gram-Schmidt orthonormalisation) not specified.
  Using default value basis_acc =  0.1000000E-03.
  Species O                   : Using default innermost maximum threshold i_radial=  2 for radial functions.
  Species O                   : Default cutoff onset for free atom density etc. : 0.35000000E+01 AA.
  Species O                   : Basic radial grid will be enhanced according to radial_multiplier =   1, to contain    36 grid points.
 
  Finished reading input file 'control.in'. Consistency checks are next.
 
  MPI_IN_PLACE appears to work with this MPI implementation.
  | Keeping use_mpi_in_place .true. (see manual).
  Target number of points in a grid batch is not set. Defaulting to  100
  Method for grid partitioning is not set. Defaulting to parallel hash+maxmin partitioning.
  Batch size limit is not set. Defaulting to    200
  By default, will store active basis functions for each batch.
  If in need of memory, prune_basis_once .false. can be used to disable this option.
  communication_type for Hartree potential was not specified.
  Defaulting to calc_hartree .
  Pulay mixer: Number of initial linear mixing iterations not set.
  Defaulting to    0 iterations.
  Work space size for distributed Hartree potential not set.
  Defaulting to   0.200000E+03 MB.
  Algorithm-dependent basis array size parameters:
  | n_max_pulay                         :       10
  Presetting      1001 iterations before the initial mixing cycle
  is restarted anyway using the sc_init_iter criterion / keyword.
  Presetting a factor      1.000 between actual scf density residual
  and density convergence criterion sc_accuracy_rho below which sc_init_iter
  takes no effect.
  Geometry relaxation not requested: no relaxation will be performed.
  Handling of forces: Unphysical translation and rotation will be removed from forces.
  No accuracy limit for integral partition fn. given. Defaulting to  0.1000E-14.
  No threshold value for u(r) in integrations given. Defaulting to  0.1000E-05.
  No accuracy for occupation numbers given. Defaulting to  0.1000E-12.
  No threshold value for occupation numbers given. Defaulting to  0.0000E+00.
  No accuracy for fermi level given. Defaulting to  0.1000E-19.
  Maximum # of iterations to find E_F not set. Defaulting to  200.
  Preferred method for the eigenvalue solver ('KS_method') not specified in 'control.in'.
  Defaulting to serial version, 'lapack_fast'.
  Will not use alltoall communication since running on < 1024 CPUs.
  Threshold for basis singularities not set.
  Default threshold for basis singularities:  0.1000E-04
  partition_type (choice of integration weights) for integrals was not specified.
  | Using a version of the partition function of Stratmann and coworkers ('stratmann_smoother').
  | At each grid point, the set of atoms used to build the partition table is smoothly restricted to
  | only those atoms whose free-atom density would be non-zero at that grid point.
  Partitioning for Hartree potential was not defined. Using partition_type for integrals.
  | Adjusted default value of keyword multip_moments_threshold to:       0.10000000E-11
  | This value may affect high angular momentum components of the Hartree potential in periodic systems.
  No q(lm)/r^(l+1) cutoff set for long-range Hartree potential.
  | Using default value of  0.100000E-09 .
  | Verify using the multipole_threshold keyword.
  Defaulting to new monopole extrapolation.
  Density update method: automatic selection selected.
------------------------------------------------------------


------------------------------------------------------------
          Reading geometry description geometry.in.
------------------------------------------------------------
  Input structure read successfully.
  The structure contains       13 atoms,  and a total of         48.000 electrons.

  Input geometry:
  | No unit cell requested.
  | Atomic structure:
  |       Atom                x [A]            y [A]            z [A]
  |    1: Species C             0.00000000        0.00000000        0.00000000
  |    2: Species H             1.09300000        0.00000000        0.00000000
  |    3: Species N            -0.47961000        0.00000000       -1.41207000
  |    4: Species H             0.11982000       -0.61731000       -1.96110000
  |    5: Species H            -1.44069000       -0.33480000       -1.43084000
  |    6: Species C            -0.49584000        1.26211000        0.72868000
  |    7: Species H            -1.58789000        1.28919000        0.74431000
  |    8: Species H            -0.13407000        1.27425000        1.75947000
  |    9: Species H            -0.13407000        2.16087000        0.22380000
  |   10: Species C            -0.39425000       -1.28861000        0.74398000
  |   11: Species O            -0.10189000       -1.56493000        1.88303000
  |   12: Species O            -1.10210000       -2.13717000        0.06896000
  |   13: Species H            -1.96552000       -1.95926000        0.47863000
  |

  | The smallest distance between any two atoms is         0.97209854 AA.
  |
  | The first atom of this pair is atom number                     12 .
  | The second atom of this pair is atom number                    13 .

  Number of empty states per atom not set in control.in - providing a guess from actual geometry.
  | Total number of empty states used during s.c.f. cycle:       29
  If you use a very high smearing, use empty_states (per atom!) in control.in to increase this value.

  Structure-dependent array size parameters: 
  | Maximum number of distinct radial functions  :       21
  | Maximum number of basis functions            :      119
  | Number of Kohn-Sham states (occupied + empty):       53
------------------------------------------------------------

------------------------------------------------------------
          Preparing all fixed parts of the calculation.
------------------------------------------------------------
  Determining machine precision:
    2.225073858507201E-308
  Setting up grids for atomic and cluster calculations.

  Creating wave function, potential, and density for free atoms.

  Species: H

  List of occupied orbitals and eigenvalues:
    n    l              occ      energy [Ha]    energy [eV]
    1    0           1.0000        -0.237589        -6.4651


  Species: C

  List of occupied orbitals and eigenvalues:
    n    l              occ      energy [Ha]    energy [eV]
    1    0           2.0000       -10.038835      -273.1706
    2    0           2.0000        -0.502696       -13.6791
    2    1           2.0000        -0.191971        -5.2238


  Species: N

  List of occupied orbitals and eigenvalues:
    n    l              occ      energy [Ha]    energy [eV]
    1    0           2.0000       -14.128000      -384.4424
    2    0           2.0000        -0.681077       -18.5330
    2    1           3.0000        -0.259788        -7.0692


  Species: O

  List of occupied orbitals and eigenvalues:
    n    l              occ      energy [Ha]    energy [eV]
    1    0           2.0000       -18.898188      -514.2459
    2    0           2.0000        -0.878505       -23.9053
    2    1           4.0000        -0.331779        -9.0282

  Creating fixed part of basis set: Ionic, confined, hydrogenic.
 
  H                    hydrogenic:
 
  List of hydrogenic basis orbitals: 
    n    l      effective z      eigenvalue [eV]  inner max. [A]     outer max. [A]     outer radius [A]   
    2    0         2.100000       -14.9728           0.193243           1.317208           4.583499
    2    1         3.500000       -41.6669           0.602369           0.602369           3.723403
 
 
  C                    hydrogenic:
 
  List of hydrogenic basis orbitals: 
    n    l      effective z      eigenvalue [eV]  inner max. [A]     outer max. [A]     outer radius [A]   
    2    1         1.700000        -9.7616           1.230570           1.230570           4.607917
    3    2         6.000000       -54.4224           0.792453           0.792453           3.883070
    2    0         4.900000       -81.6679           0.082559           0.562749           3.078220
 
 
  N                    hydrogenic:
 
  List of hydrogenic basis orbitals: 
    n    l      effective z      eigenvalue [eV]  inner max. [A]     outer max. [A]     outer radius [A]   
    2    1         1.800000       -10.9749           1.177451           1.177451           4.573712
    3    2         6.800000       -69.9026           0.704619           0.704619           3.538137
    3    0         5.800000       -50.8545           0.067388           1.191934           4.250239
 
 
  O                    hydrogenic:
 
  List of hydrogenic basis orbitals: 
    n    l      effective z      eigenvalue [eV]  inner max. [A]     outer max. [A]     outer radius [A]   
    2    1         1.800000       -10.9749           1.164242           1.164242           4.578029
    3    2         7.600000       -87.3180           0.624125           0.624125           3.251020
    3    0         6.400000       -61.9207           0.061167           1.081902           4.001998
 

  Adding cutoff potential to free-atom effective potential.
  Creating atomic-like basis functions for current effective potential.

  Species H                   :

  List of atomic basis orbitals and eigenvalues:
    n    l      energy [Ha]    energy [eV]    outer radius [A]
    1    0        -0.237589        -6.4651       4.527807


  Species C                   :

  List of atomic basis orbitals and eigenvalues:
    n    l      energy [Ha]    energy [eV]    outer radius [A]
    1    0       -10.038835      -273.1706       1.934409
    2    0        -0.502696       -13.6791       4.496620
    2    1        -0.191971        -5.2238       4.551928


  Species N                   :

  List of atomic basis orbitals and eigenvalues:
    n    l      energy [Ha]    energy [eV]    outer radius [A]
    1    0       -14.128000      -384.4424       1.637919
    2    0        -0.681077       -18.5330       4.463241
    2    1        -0.259788        -7.0692       4.518138


  Species O                   :

  List of atomic basis orbitals and eigenvalues:
    n    l      energy [Ha]    energy [eV]    outer radius [A]
    1    0       -18.898188      -514.2459       1.415765
    2    0        -0.878505       -23.9053       4.413171
    2    1        -0.331779        -9.0282       4.522403

  Assembling full basis from fixed parts.
  | Species H :   atomic orbital   1 s accepted.
  | Species H :    hydro orbital   2 s accepted.
  | Species H :    hydro orbital   2 p accepted.
  | Species C :   atomic orbital   1 s accepted.
  | Species C :    hydro orbital   2 s accepted.
  | Species C :   atomic orbital   2 s accepted.
  | Species C :   atomic orbital   2 p accepted.
  | Species C :    hydro orbital   2 p accepted.
  | Species C :    hydro orbital   3 d accepted.
  | Species N :   atomic orbital   1 s accepted.
  | Species N :    hydro orbital   3 s accepted.
  | Species N :   atomic orbital   2 s accepted.
  | Species N :   atomic orbital   2 p accepted.
  | Species N :    hydro orbital   2 p accepted.
  | Species N :    hydro orbital   3 d accepted.
  | Species O :   atomic orbital   1 s accepted.
  | Species O :    hydro orbital   3 s accepted.
  | Species O :   atomic orbital   2 s accepted.
  | Species O :   atomic orbital   2 p accepted.
  | Species O :    hydro orbital   2 p accepted.
  | Species O :    hydro orbital   3 d accepted.
 
  Basis size parameters after reduction:
  | Total number of radial functions:       21
  | Total number of basis functions :      119
 
  Per-task memory consumption for arrays in subroutine allocate_ext:
  |           5.250512MB.
  Testing on-site integration grid accuracy.
  |  Species  Function  <phi|h_atom|phi> (log., in eV)  <phi|h_atom|phi> (rad., in eV)
           1        1                 -6.4663192853                 -6.4651273558
           1        2                 13.7111246313                 13.7170609718
           1        3                 25.2673269279                 25.2674696378
           2        4               -273.1705927641               -273.1705631568
           2        5                -10.7109323383                -10.7107120029
           2        6                 17.4381822266                 17.4352413244
           2        7                 -5.2255326521                 -5.2270484734
           2        8                  8.6835629259                  8.6603288385
           2        9                 27.4952418996                 27.4953360207
           3       10               -384.4424306495               -384.4423701208
           3       11                 12.5842251816                 12.5842222903
           3       12                -15.7264628251                -15.7264433455
           3       13                 -7.0696854293                 -7.0701769954
           3       14                  8.8090390882                  8.7901077751
           3       15                 35.9586762123                 35.9588528632
           4       16               -514.2458688638               -514.2457643834
           4       17                 15.1795651126                 15.1795290741
           4       18                -21.5359799773                -21.5360846186
           4       19                 -9.0283069236                 -9.0284644067
           4       20                  8.3027758564                  8.2834874195
           4       21                 45.8339351984                 45.8338762259

  Preparing densities etc. for the partition functions (integrals / Hartree potential).

  Preparations completed.
  max(cpu_time)          :      0.145 s.
  Wall clock time (cpu1) :      0.146 s.
------------------------------------------------------------

------------------------------------------------------------
          Begin self-consistency loop: Initialization.

          Date     :  20200815, Time     :  003840.651
------------------------------------------------------------

  Initializing index lists of integration centers etc. from given atomic structure:
  | Number of centers in hartree potential         :        13
  | Number of centers in hartree multipole         :        13
  | Number of centers in electron density summation:        13
  | Number of centers in basis integrals           :        13
  | Number of centers in integrals                 :        13
  | Number of centers in hamiltonian               :        13
  Partitioning the integration grid into batches with parallel hashing+maxmin method.
  | Number of batches:      960
  | Maximal batch size:     138
  | Minimal batch size:      66
  | Average batch size:      72.548
  | Standard deviation of batch sizes:      16.997

  Integration load balanced across     1 MPI tasks.
  Work distribution over tasks is as follows:
  Task     0 has      69646 integration points.
  Initializing partition tables, free-atom densities, potentials, etc. across the integration grid (initialize_grid_storage).
  | initialize_grid_storage: Actual outermost partition radius vs. multipole_radius_free
  | (-- VB: in principle, multipole_radius_free should be larger, hence this output)
  | Species        1: Confinement radius =              4.999999999999999 AA, multipole_radius_free =              5.054417573612229 AA.
  | Species        1: outer_partition_radius set to              5.054417573612229 AA .
  | Species        2: Confinement radius =              4.999999999999999 AA, multipole_radius_free =              5.019602836301480 AA.
  | Species        2: outer_partition_radius set to              5.019602836301480 AA .
  | Species        3: Confinement radius =              4.999999999999999 AA, multipole_radius_free =              5.043624274424571 AA.
  | Species        3: outer_partition_radius set to              5.043624274424571 AA .
  | Species        4: Confinement radius =              4.999999999999999 AA, multipole_radius_free =              5.048384829883283 AA.
  | Species        4: outer_partition_radius set to              5.048384829883283 AA .
  | Original list of interatomic distances with          13 x         13 entries is created.
  | Net number of integration points:    69646
  | of which are non-zero points    :    59495
  Renormalizing the initial density to the exact electron count on the 3D integration grid.
  | Initial density: Formal number of electrons (from input files) :      48.0000000000
  | Integrated number of electrons on 3D grid     :      47.9999503564
  | Charge integration error                      :      -0.0000496436
  | Normalization factor for density and gradient :       1.0000010342
  Obtaining max. number of non-zero basis functions in each batch (get_n_compute_maxes).
  | Maximal number of non-zero basis functions:      119 in task     0
  Selecting the method for density update.
  Loop over occupied states selected for charge density update.
  Allocating        0.050 MB for KS_eigenvector
  Integrating Hamiltonian matrix: batch-based integration.
  Time summed over all CPUs for integration: real work        0.501 s, elapsed        0.501 s
  Integrating overlap matrix.
  Time summed over all CPUs for integration: real work        0.212 s, elapsed        0.212 s

  Updating Kohn-Sham eigenvalues and eigenvectors using ELSI and the ELPA eigensolver.
  Overlap matrix is nonsingular
  | Lowest eigenvalue of overlap  :  0.52E-02
  | Highest eigenvalue of overlap :  0.62E+01
  Finished singularity check of overlap matrix
  | Time :     0.002 s
  Finished Cholesky decomposition
  | Time :     0.000 s
  Finished transformation to standard eigenproblem
  | Time :     0.000 s
  Starting LAPACK eigensolver
  Finished solving standard eigenproblem
  | Time :     0.002 s
  Finished back-transformation of eigenvectors
  | Time :     0.000 s

  Obtaining occupation numbers and chemical potential using ELSI.
  | Chemical potential (Fermi level):    -9.05764580eV
  Writing Kohn-Sham eigenvalues.

  State    Occupation    Eigenvalue [Ha]    Eigenvalue [eV]
      1       2.00000         -19.007900         -517.23128
      2       2.00000         -18.977428         -516.40208
      3       2.00000         -14.245805         -387.64808
      4       2.00000         -10.166618         -276.64774
      5       2.00000         -10.141287         -275.95845
      6       2.00000         -10.132076         -275.70783
      7       2.00000          -1.184622          -32.23520
      8       2.00000          -1.096393          -29.83436
      9       2.00000          -0.990767          -26.96014
     10       2.00000          -0.861290          -23.43690
     11       2.00000          -0.754538          -20.53203
     12       2.00000          -0.679513          -18.49050
     13       2.00000          -0.629657          -17.13384
     14       2.00000          -0.614091          -16.71027
     15       2.00000          -0.587089          -15.97550
     16       2.00000          -0.567383          -15.43929
     17       2.00000          -0.551123          -14.99683
     18       2.00000          -0.532127          -14.47992
     19       2.00000          -0.514387          -13.99717
     20       2.00000          -0.495069          -13.47151
     21       2.00000          -0.455574          -12.39680
     22       2.00000          -0.430531          -11.71533
     23       2.00000          -0.419807          -11.42352
     24       2.00000          -0.378286          -10.29368
     25       0.00000          -0.163193           -4.44071
     26       0.00000          -0.066700           -1.81499
     27       0.00000          -0.032410           -0.88191
     28       0.00000          -0.018104           -0.49263
     29       0.00000           0.006517            0.17733
     30       0.00000           0.011633            0.31654
     31       0.00000           0.020270            0.55158
     32       0.00000           0.029886            0.81325
     33       0.00000           0.043369            1.18014
     34       0.00000           0.063284            1.72206
     35       0.00000           0.080892            2.20118
     36       0.00000           0.135323            3.68233
     37       0.00000           0.156847            4.26804
     38       0.00000           0.203942            5.54955
     39       0.00000           0.214595            5.83943
     40       0.00000           0.229055            6.23290
     41       0.00000           0.257746            7.01363
     42       0.00000           0.274636            7.47321
     43       0.00000           0.278154            7.56896
     44       0.00000           0.301051            8.19202
     45       0.00000           0.320620            8.72453
     46       0.00000           0.351137            9.55493
     47       0.00000           0.364934            9.93035
     48       0.00000           0.388241           10.56458
     49       0.00000           0.445778           12.13023
     50       0.00000           0.492447           13.40016
     51       0.00000           0.502182           13.66506
     52       0.00000           0.510891           13.90206
     53       0.00000           0.585582           15.93450

  Highest occupied state (VBM) at    -10.29368102 eV
  | Occupation number:      2.00000000

  Lowest unoccupied state (CBM) at    -4.44071438 eV
  | Occupation number:      0.00000000

  Overall HOMO-LUMO gap:      5.85296664 eV.
  Calculating total energy contributions from superposition of free atom densities.

  Total energy components:
  | Sum of eigenvalues            :        -188.82672202 Ha       -5138.23653665 eV
  | XC energy correction          :         -41.78513604 Ha       -1137.03140319 eV
  | XC potential correction       :          53.71516676 Ha        1461.66405625 eV
  | Free-atom electrostatic energy:        -146.86236326 Ha       -3996.32823513 eV
  | Hartree energy correction     :           0.00000000 Ha           0.00000000 eV
  | vdW energy correction         :           0.00000000 Ha           0.00000000 eV
  | Entropy correction            :           0.00000000 Ha           0.00000000 eV
  | ---------------------------
  | Total energy                  :        -323.75905455 Ha       -8809.93211872 eV
  | Total energy, T -> 0          :        -323.75905455 Ha       -8809.93211872 eV  <-- do not rely on this value for anything but (periodic) metals
  | Electronic free energy        :        -323.75905455 Ha       -8809.93211872 eV

  Derived energy quantities:
  | Kinetic energy                :         320.48984906 Ha        8720.97251118 eV
  | Electrostatic energy          :        -602.46376757 Ha      -16393.87322671 eV
  | Energy correction for multipole
  | error in Hartree potential    :           0.00000000 Ha           0.00000000 eV
  | Sum of eigenvalues per atom                           :        -395.24896436 eV
  | Total energy (T->0) per atom                          :        -677.68708606 eV  <-- do not rely on this value for anything but (periodic) metals
  | Electronic free energy per atom                       :        -677.68708606 eV
  Initialize hartree_potential_storage
  Max. number of atoms included in rho_multipole:           13

  End scf initialization - timings             :  max(cpu_time)    wall_clock(cpu1)
  | Time for scf. initialization               :        1.155 s           1.158 s
  | Boundary condition initialization          :        0.000 s           0.000 s
  | Integration                                :        0.712 s           0.714 s
  | Solution of K.-S. eqns.                    :        0.004 s           0.004 s
  | Grid partitioning                          :        0.111 s           0.112 s
  | Preloading free-atom quantities on grid    :        0.002 s           0.003 s
  | Free-atom superposition energy             :        0.085 s           0.085 s
  | Total energy evaluation                    :        0.000 s           0.000 s

  Partial memory accounting:
  | Current value for overall tracked memory usage on task 0  :           0.165 MB
  | Peak value for overall tracked memory usage on task 0     :           0.676 MB after allocating wave
  | Largest tracked array allocation on task 0 so far         :           0.131 MB  when allocating H_times_psi
  Note:  These values currently only include a subset of arrays which are explicitly tracked.
  The "true" memory usage will be greater.
------------------------------------------------------------

------------------------------------------------------------
          Begin self-consistency iteration #    1

  Date     :  20200815, Time     :  003841.809
------------------------------------------------------------
  Evaluating new KS density.
  Integration grid: deviation in total charge (<rho> - N_e) =   4.973799E-14
  Pulay mixing of updated and previous charge densities.

  Evaluating partitioned Hartree potential by multipole expansion.
  | Analytical far-field extrapolation by fixed multipoles:
  | Hartree multipole sum: apparent total charge =  -0.158189E-03
  Summing up the Hartree potential.
  Time summed over all CPUs for potential: real work        0.282 s, elapsed        0.282 s
  | RMS charge density error from multipole expansion :   0.590555E-02

  Integrating Hamiltonian matrix: batch-based integration.
  Time summed over all CPUs for integration: real work        0.499 s, elapsed        0.499 s

  Updating Kohn-Sham eigenvalues and eigenvectors using ELSI and the ELPA eigensolver.
  Finished Cholesky decomposition
  | Time :     0.000 s
  Finished transformation to standard eigenproblem
  | Time :     0.000 s
  Starting LAPACK eigensolver
  Finished solving standard eigenproblem
  | Time :     0.001 s
  Finished back-transformation of eigenvectors
  | Time :     0.000 s

  Obtaining occupation numbers and chemical potential using ELSI.
  | Chemical potential (Fermi level):    -7.89940261eV
  Writing Kohn-Sham eigenvalues.

  State    Occupation    Eigenvalue [Ha]    Eigenvalue [eV]
      1       2.00000         -18.899086         -514.27029
      2       2.00000         -18.840558         -512.67768
      3       2.00000         -14.095739         -383.56456
      4       2.00000         -10.118482         -275.33791
      5       2.00000         -10.062396         -273.81174
      6       2.00000         -10.030423         -272.94169
      7       2.00000          -1.135907          -30.90960
      8       2.00000          -1.034886          -28.16067
      9       2.00000          -0.920890          -25.05869
     10       2.00000          -0.794809          -21.62785
     11       2.00000          -0.703434          -19.14140
     12       2.00000          -0.633735          -17.24481
     13       2.00000          -0.578582          -15.74401
     14       2.00000          -0.551655          -15.01130
     15       2.00000          -0.531781          -14.47050
     16       2.00000          -0.506631          -13.78612
     17       2.00000          -0.490297          -13.34166
     18       2.00000          -0.470213          -12.79514
     19       2.00000          -0.448219          -12.19666
     20       2.00000          -0.439180          -11.95069
     21       2.00000          -0.396497          -10.78924
     22       2.00000          -0.373363          -10.15973
     23       2.00000          -0.349436           -9.50865
     24       2.00000          -0.304694           -8.29115
     25       0.00000          -0.129512           -3.52421
     26       0.00000          -0.047802           -1.30077
     27       0.00000          -0.001584           -0.04310
     28       0.00000           0.015809            0.43019
     29       0.00000           0.032287            0.87856
     30       0.00000           0.054110            1.47241
     31       0.00000           0.062857            1.71043
     32       0.00000           0.070121            1.90808
     33       0.00000           0.082676            2.24972
     34       0.00000           0.100250            2.72795
     35       0.00000           0.121408            3.30367
     36       0.00000           0.163628            4.45255
     37       0.00000           0.179566            4.88624
     38       0.00000           0.235201            6.40015
     39       0.00000           0.245925            6.69195
     40       0.00000           0.262019            7.12989
     41       0.00000           0.291359            7.92828
     42       0.00000           0.309089            8.41074
     43       0.00000           0.315980            8.59827
     44       0.00000           0.337484            9.18340
     45       0.00000           0.359663            9.78693
     46       0.00000           0.381984           10.39430
     47       0.00000           0.409069           11.13132
     48       0.00000           0.426840           11.61491
     49       0.00000           0.485292           13.20547
     50       0.00000           0.522975           14.23087
     51       0.00000           0.541137           14.72509
     52       0.00000           0.542863           14.77206
     53       0.00000           0.624889           17.00408

  Highest occupied state (VBM) at     -8.29115176 eV
  | Occupation number:      2.00000000

  Lowest unoccupied state (CBM) at    -3.52420787 eV
  | Occupation number:      0.00000000

  Overall HOMO-LUMO gap:      4.76694389 eV.

  Total energy components:
  | Sum of eigenvalues            :        -185.42178545 Ha       -5045.58349857 eV
  | XC energy correction          :         -42.11647503 Ha       -1146.04759582 eV
  | XC potential correction       :          54.14615483 Ha        1473.39183838 eV
  | Free-atom electrostatic energy:        -146.86236326 Ha       -3996.32823513 eV
  | Hartree energy correction     :          -3.31859504 Ha         -90.30356550 eV
  | vdW energy correction         :           0.00000000 Ha           0.00000000 eV
  | Entropy correction            :           0.00000000 Ha           0.00000000 eV
  | ---------------------------
  | Total energy                  :        -323.57306394 Ha       -8804.87105665 eV
  | Total energy, T -> 0          :        -323.57306394 Ha       -8804.87105665 eV  <-- do not rely on this value for anything but (periodic) metals
  | Electronic free energy        :        -323.57306394 Ha       -8804.87105665 eV

  Derived energy quantities:
  | Kinetic energy                :         322.29903856 Ha        8770.20306231 eV
  | Electrostatic energy          :        -603.75562747 Ha      -16429.02652314 eV
  | Energy correction for multipole
  | error in Hartree potential    :           0.01207617 Ha           0.32860931 eV
  | Sum of eigenvalues per atom                           :        -388.12180758 eV
  | Total energy (T->0) per atom                          :        -677.29777359 eV  <-- do not rely on this value for anything but (periodic) metals
  | Electronic free energy per atom                       :        -677.29777359 eV

  Self-consistency convergence accuracy:
  | Change of charge density      :  0.5893E+00
  | Change of sum of eigenvalues  :  0.9265E+02 eV
  | Change of total energy        :  0.5061E+01 eV

  End self-consistency iteration #     1       :  max(cpu_time)    wall_clock(cpu1)
  | Time for this iteration                    :        1.190 s           1.192 s
  | Charge density update                      :        0.393 s           0.394 s
  | Density mixing                             :        0.005 s           0.005 s
  | Hartree multipole update                   :        0.009 s           0.009 s
  | Hartree multipole summation                :        0.283 s           0.283 s
  | Integration                                :        0.497 s           0.499 s
  | Solution of K.-S. eqns.                    :        0.002 s           0.002 s
  | Total energy evaluation                    :        0.000 s           0.000 s

  Partial memory accounting:
  | Current value for overall tracked memory usage on task 0  :           0.165 MB
  | Peak value for overall tracked memory usage on task 0     :           0.691 MB after allocating gradient_basis_wave
  | Largest tracked array allocation on task 0 so far         :           0.394 MB  when allocating gradient_basis_wave
  Note:  These values currently only include a subset of arrays which are explicitly tracked.
  The "true" memory usage will be greater.
------------------------------------------------------------

------------------------------------------------------------
          Begin self-consistency iteration #    2

  Date     :  20200815, Time     :  003843.003
------------------------------------------------------------
  Evaluating new KS density.
  Integration grid: deviation in total charge (<rho> - N_e) =   2.131628E-14
  Pulay mixing of updated and previous charge densities.

  Evaluating partitioned Hartree potential by multipole expansion.
  | Analytical far-field extrapolation by fixed multipoles:
  | Hartree multipole sum: apparent total charge =  -0.295940E-03
  Summing up the Hartree potential.
  Time summed over all CPUs for potential: real work        0.282 s, elapsed        0.282 s
  | RMS charge density error from multipole expansion :   0.139510E-01

  Integrating Hamiltonian matrix: batch-based integration.
  Time summed over all CPUs for integration: real work        0.495 s, elapsed        0.495 s

  Updating Kohn-Sham eigenvalues and eigenvectors using ELSI and the ELPA eigensolver.
  Finished Cholesky decomposition
  | Time :     0.000 s
  Finished transformation to standard eigenproblem
  | Time :     0.000 s
  Starting LAPACK eigensolver
  Finished solving standard eigenproblem
  | Time :     0.002 s
  Finished back-transformation of eigenvectors
  | Time :     0.000 s

  Obtaining occupation numbers and chemical potential using ELSI.
  | Chemical potential (Fermi level):    -2.40479229eV
  Highest occupied state (VBM) at     -6.29379144 eV
  | Occupation number:      2.00000000

  Lowest unoccupied state (CBM) at    -2.33860140 eV
  | Occupation number:      0.00000000

  Overall HOMO-LUMO gap:      3.95519004 eV.

  Checking to see if s.c.f. parameters should be adjusted.

  Total energy components:
  | Sum of eigenvalues            :        -181.84654791 Ha       -4948.29633526 eV
  | XC energy correction          :         -42.47728896 Ha       -1155.86584230 eV
  | XC potential correction       :          54.61397309 Ha        1486.12182092 eV
  | Free-atom electrostatic energy:        -146.86236326 Ha       -3996.32823513 eV
  | Hartree energy correction     :          -6.92045472 Ha        -188.31515442 eV
  | vdW energy correction         :           0.00000000 Ha           0.00000000 eV
  | Entropy correction            :          -0.00000000 Ha          -0.00000000 eV
  | ---------------------------
  | Total energy                  :        -323.49268176 Ha       -8802.68374620 eV
  | Total energy, T -> 0          :        -323.49268176 Ha       -8802.68374620 eV  <-- do not rely on this value for anything but (periodic) metals
  | Electronic free energy        :        -323.49268176 Ha       -8802.68374620 eV

  Derived energy quantities:
  | Kinetic energy                :         323.62427070 Ha        8806.26446361 eV
  | Electrostatic energy          :        -604.63966350 Ha      -16453.08236750 eV
  | Energy correction for multipole
  | error in Hartree potential    :           0.02655204 Ha           0.72251769 eV
  | Sum of eigenvalues per atom                           :        -380.63817964 eV
  | Total energy (T->0) per atom                          :        -677.12951894 eV  <-- do not rely on this value for anything but (periodic) metals
  | Electronic free energy per atom                       :        -677.12951894 eV

  Self-consistency convergence accuracy:
  | Change of charge density      :  0.3687E+00
  | Change of sum of eigenvalues  :  0.9729E+02 eV
  | Change of total energy        :  0.2187E+01 eV

  End self-consistency iteration #     2       :  max(cpu_time)    wall_clock(cpu1)
  | Time for this iteration                    :        1.181 s           1.182 s
  | Charge density update                      :        0.386 s           0.387 s
  | Density mixing                             :        0.007 s           0.006 s
  | Hartree multipole update                   :        0.009 s           0.009 s
  | Hartree multipole summation                :        0.282 s           0.283 s
  | Integration                                :        0.495 s           0.495 s
  | Solution of K.-S. eqns.                    :        0.002 s           0.002 s
  | Total energy evaluation                    :        0.000 s           0.000 s

  Partial memory accounting:
  | Current value for overall tracked memory usage on task 0  :           0.166 MB
  | Peak value for overall tracked memory usage on task 0     :           0.691 MB after allocating gradient_basis_wave
  | Largest tracked array allocation on task 0 so far         :           0.394 MB  when allocating gradient_basis_wave
  Note:  These values currently only include a subset of arrays which are explicitly tracked.
  The "true" memory usage will be greater.
------------------------------------------------------------

------------------------------------------------------------
          Begin self-consistency iteration #    3

  Date     :  20200815, Time     :  003844.186
------------------------------------------------------------
  Evaluating new KS density.
  Integration grid: deviation in total charge (<rho> - N_e) =   5.684342E-14
  Pulay mixing of updated and previous charge densities.

  Evaluating partitioned Hartree potential by multipole expansion.
  | Analytical far-field extrapolation by fixed multipoles:
  | Hartree multipole sum: apparent total charge =  -0.393085E-03
  Summing up the Hartree potential.
  Time summed over all CPUs for potential: real work        0.282 s, elapsed        0.282 s
  | RMS charge density error from multipole expansion :   0.218496E-01

  Integrating Hamiltonian matrix: batch-based integration.
  Time summed over all CPUs for integration: real work        0.497 s, elapsed        0.497 s

  Updating Kohn-Sham eigenvalues and eigenvectors using ELSI and the ELPA eigensolver.
  Finished Cholesky decomposition
  | Time :     0.000 s
  Finished transformation to standard eigenproblem
  | Time :     0.000 s
  Starting LAPACK eigensolver
  Finished solving standard eigenproblem
  | Time :     0.002 s
  Finished back-transformation of eigenvectors
  | Time :     0.000 s

  Obtaining occupation numbers and chemical potential using ELSI.
  | Chemical potential (Fermi level):    -1.70959897eV
  Highest occupied state (VBM) at     -5.60514386 eV
  | Occupation number:      2.00000000

  Lowest unoccupied state (CBM) at    -1.64670388 eV
  | Occupation number:      0.00000000

  Overall HOMO-LUMO gap:      3.95843998 eV.

  Total energy components:
  | Sum of eigenvalues            :        -180.50907599 Ha       -4911.90187261 eV
  | XC energy correction          :         -42.63086597 Ha       -1160.04488550 eV
  | XC potential correction       :          54.81006986 Ha        1491.45788542 eV
  | Free-atom electrostatic energy:        -146.86236326 Ha       -3996.32823513 eV
  | Hartree energy correction     :          -8.28710414 Ha        -225.50357719 eV
  | vdW energy correction         :           0.00000000 Ha           0.00000000 eV
  | Entropy correction            :          -0.00000000 Ha          -0.00000000 eV
  | ---------------------------
  | Total energy                  :        -323.47933950 Ha       -8802.32068501 eV
  | Total energy, T -> 0          :        -323.47933950 Ha       -8802.32068501 eV  <-- do not rely on this value for anything but (periodic) metals
  | Electronic free energy        :        -323.47933950 Ha       -8802.32068501 eV

  Derived energy quantities:
  | Kinetic energy                :         323.23389810 Ha        8795.64188454 eV
  | Electrostatic energy          :        -604.08237163 Ha      -16437.91768405 eV
  | Energy correction for multipole
  | error in Hartree potential    :           0.03756328 Ha           1.02214885 eV
  | Sum of eigenvalues per atom                           :        -377.83860559 eV
  | Total energy (T->0) per atom                          :        -677.10159115 eV  <-- do not rely on this value for anything but (periodic) metals
  | Electronic free energy per atom                       :        -677.10159115 eV

  Self-consistency convergence accuracy:
  | Change of charge density      :  0.2072E+00
  | Change of sum of eigenvalues  :  0.3639E+02 eV
  | Change of total energy        :  0.3631E+00 eV

  End self-consistency iteration #     3       :  max(cpu_time)    wall_clock(cpu1)
  | Time for this iteration                    :        1.184 s           1.185 s
  | Charge density update                      :        0.386 s           0.386 s
  | Density mixing                             :        0.008 s           0.008 s
  | Hartree multipole update                   :        0.009 s           0.009 s
  | Hartree multipole summation                :        0.282 s           0.282 s
  | Integration                                :        0.497 s           0.497 s
  | Solution of K.-S. eqns.                    :        0.002 s           0.002 s
  | Total energy evaluation                    :        0.000 s           0.001 s

  Partial memory accounting:
  | Current value for overall tracked memory usage on task 0  :           0.166 MB
  | Peak value for overall tracked memory usage on task 0     :           0.692 MB after allocating gradient_basis_wave
  | Largest tracked array allocation on task 0 so far         :           0.394 MB  when allocating gradient_basis_wave
  Note:  These values currently only include a subset of arrays which are explicitly tracked.
  The "true" memory usage will be greater.
------------------------------------------------------------

------------------------------------------------------------
          Begin self-consistency iteration #    4

  Date     :  20200815, Time     :  003845.372
------------------------------------------------------------
  Evaluating new KS density.
  Integration grid: deviation in total charge (<rho> - N_e) =   3.552714E-14
  Pulay mixing of updated and previous charge densities.

  Evaluating partitioned Hartree potential by multipole expansion.
  | Analytical far-field extrapolation by fixed multipoles:
  | Hartree multipole sum: apparent total charge =  -0.426338E-03
  Summing up the Hartree potential.
  Time summed over all CPUs for potential: real work        0.282 s, elapsed        0.282 s
  | RMS charge density error from multipole expansion :   0.253264E-01

  Integrating Hamiltonian matrix: batch-based integration.
  Time summed over all CPUs for integration: real work        0.496 s, elapsed        0.496 s

  Updating Kohn-Sham eigenvalues and eigenvectors using ELSI and the ELPA eigensolver.
  Finished Cholesky decomposition
  | Time :     0.000 s
  Finished transformation to standard eigenproblem
  | Time :     0.000 s
  Starting LAPACK eigensolver
  Finished solving standard eigenproblem
  | Time :     0.002 s
  Finished back-transformation of eigenvectors
  | Time :     0.000 s

  Obtaining occupation numbers and chemical potential using ELSI.
  | Chemical potential (Fermi level):    -3.66846443eV
  Highest occupied state (VBM) at     -5.41404440 eV
  | Occupation number:      2.00000000

  Lowest unoccupied state (CBM) at    -1.55162395 eV
  | Occupation number:      0.00000000

  Overall HOMO-LUMO gap:      3.86242045 eV.

  Total energy components:
  | Sum of eigenvalues            :        -180.36498079 Ha       -4907.98084271 eV
  | XC energy correction          :         -42.66874905 Ha       -1161.07573645 eV
  | XC potential correction       :          54.85774362 Ha        1492.75515453 eV
  | Free-atom electrostatic energy:        -146.86236326 Ha       -3996.32823513 eV
  | Hartree energy correction     :          -8.43992682 Ha        -229.66209398 eV
  | vdW energy correction         :           0.00000000 Ha           0.00000000 eV
  | Entropy correction            :           0.00000000 Ha           0.00000000 eV
  | ---------------------------
  | Total energy                  :        -323.47827630 Ha       -8802.29175374 eV
  | Total energy, T -> 0          :        -323.47827630 Ha       -8802.29175374 eV  <-- do not rely on this value for anything but (periodic) metals
  | Electronic free energy        :        -323.47827630 Ha       -8802.29175374 eV

  Derived energy quantities:
  | Kinetic energy                :         322.82892434 Ha        8784.62198786 eV
  | Electrostatic energy          :        -603.63845159 Ha      -16425.83800515 eV
  | Energy correction for multipole
  | error in Hartree potential    :           0.04191105 Ha           1.14045758 eV
  | Sum of eigenvalues per atom                           :        -377.53698790 eV
  | Total energy (T->0) per atom                          :        -677.09936567 eV  <-- do not rely on this value for anything but (periodic) metals
  | Electronic free energy per atom                       :        -677.09936567 eV

  Self-consistency convergence accuracy:
  | Change of charge density      :  0.6828E-01
  | Change of sum of eigenvalues  :  0.3921E+01 eV
  | Change of total energy        :  0.2893E-01 eV

  End self-consistency iteration #     4       :  max(cpu_time)    wall_clock(cpu1)
  | Time for this iteration                    :        1.184 s           1.184 s
  | Charge density update                      :        0.386 s           0.385 s
  | Density mixing                             :        0.009 s           0.010 s
  | Hartree multipole update                   :        0.009 s           0.009 s
  | Hartree multipole summation                :        0.282 s           0.282 s
  | Integration                                :        0.496 s           0.496 s
  | Solution of K.-S. eqns.                    :        0.002 s           0.002 s
  | Total energy evaluation                    :        0.000 s           0.000 s

  Partial memory accounting:
  | Current value for overall tracked memory usage on task 0  :           0.166 MB
  | Peak value for overall tracked memory usage on task 0     :           0.692 MB after allocating gradient_basis_wave
  | Largest tracked array allocation on task 0 so far         :           0.394 MB  when allocating gradient_basis_wave
  Note:  These values currently only include a subset of arrays which are explicitly tracked.
  The "true" memory usage will be greater.
------------------------------------------------------------

------------------------------------------------------------
          Begin self-consistency iteration #    5

  Date     :  20200815, Time     :  003846.558
------------------------------------------------------------
  Evaluating new KS density.
  Integration grid: deviation in total charge (<rho> - N_e) =  -1.421085E-14
  Pulay mixing of updated and previous charge densities.

  Evaluating partitioned Hartree potential by multipole expansion.
  | Analytical far-field extrapolation by fixed multipoles:
  | Hartree multipole sum: apparent total charge =  -0.420011E-03
  Summing up the Hartree potential.
  Time summed over all CPUs for potential: real work        0.282 s, elapsed        0.282 s
  | RMS charge density error from multipole expansion :   0.250973E-01

  Integrating Hamiltonian matrix: batch-based integration.
  Time summed over all CPUs for integration: real work        0.497 s, elapsed        0.497 s

  Updating Kohn-Sham eigenvalues and eigenvectors using ELSI and the ELPA eigensolver.
  Finished Cholesky decomposition
  | Time :     0.000 s
  Finished transformation to standard eigenproblem
  | Time :     0.000 s
  Starting LAPACK eigensolver
  Finished solving standard eigenproblem
  | Time :     0.002 s
  Finished back-transformation of eigenvectors
  | Time :     0.000 s

  Obtaining occupation numbers and chemical potential using ELSI.
  | Chemical potential (Fermi level):    -3.74307154eV
  Highest occupied state (VBM) at     -5.51686289 eV
  | Occupation number:      2.00000000

  Lowest unoccupied state (CBM) at    -1.65430899 eV
  | Occupation number:      0.00000000

  Overall HOMO-LUMO gap:      3.86255390 eV.

  Total energy components:
  | Sum of eigenvalues            :        -180.58310151 Ha       -4913.91620941 eV
  | XC energy correction          :         -42.64231125 Ha       -1160.35632740 eV
  | XC potential correction       :          54.82343224 Ha        1491.82149416 eV
  | Free-atom electrostatic energy:        -146.86236326 Ha       -3996.32823513 eV
  | Hartree energy correction     :          -8.21364176 Ha        -223.50456407 eV
  | vdW energy correction         :           0.00000000 Ha           0.00000000 eV
  | Entropy correction            :           0.00000000 Ha           0.00000000 eV
  | ---------------------------
  | Total energy                  :        -323.47798554 Ha       -8802.28384184 eV
  | Total energy, T -> 0          :        -323.47798554 Ha       -8802.28384184 eV  <-- do not rely on this value for anything but (periodic) metals
  | Electronic free energy        :        -323.47798554 Ha       -8802.28384184 eV

  Derived energy quantities:
  | Kinetic energy                :         322.69832338 Ha        8781.06815509 eV
  | Electrostatic energy          :        -603.53399767 Ha      -16422.99566954 eV
  | Energy correction for multipole
  | error in Hartree potential    :           0.04127196 Ha           1.12306713 eV
  | Sum of eigenvalues per atom                           :        -377.99355457 eV
  | Total energy (T->0) per atom                          :        -677.09875706 eV  <-- do not rely on this value for anything but (periodic) metals
  | Electronic free energy per atom                       :        -677.09875706 eV

  Self-consistency convergence accuracy:
  | Change of charge density      :  0.2033E-01
  | Change of sum of eigenvalues  : -0.5935E+01 eV
  | Change of total energy        :  0.7912E-02 eV

  End self-consistency iteration #     5       :  max(cpu_time)    wall_clock(cpu1)
  | Time for this iteration                    :        1.185 s           1.187 s
  | Charge density update                      :        0.386 s           0.386 s
  | Density mixing                             :        0.011 s           0.010 s
  | Hartree multipole update                   :        0.009 s           0.009 s
  | Hartree multipole summation                :        0.282 s           0.282 s
  | Integration                                :        0.496 s           0.497 s
  | Solution of K.-S. eqns.                    :        0.002 s           0.002 s
  | Total energy evaluation                    :        0.000 s           0.000 s

  Partial memory accounting:
  | Current value for overall tracked memory usage on task 0  :           0.166 MB
  | Peak value for overall tracked memory usage on task 0     :           0.692 MB after allocating gradient_basis_wave
  | Largest tracked array allocation on task 0 so far         :           0.394 MB  when allocating gradient_basis_wave
  Note:  These values currently only include a subset of arrays which are explicitly tracked.
  The "true" memory usage will be greater.
------------------------------------------------------------

------------------------------------------------------------
          Begin self-consistency iteration #    6

  Date     :  20200815, Time     :  003847.748
------------------------------------------------------------
  Evaluating new KS density.
  Integration grid: deviation in total charge (<rho> - N_e) =   1.421085E-14
  Pulay mixing of updated and previous charge densities.

  Evaluating partitioned Hartree potential by multipole expansion.
  | Analytical far-field extrapolation by fixed multipoles:
  | Hartree multipole sum: apparent total charge =  -0.424671E-03
  Summing up the Hartree potential.
  Time summed over all CPUs for potential: real work        0.282 s, elapsed        0.282 s
  | RMS charge density error from multipole expansion :   0.255694E-01

  Integrating Hamiltonian matrix: batch-based integration.
  Time summed over all CPUs for integration: real work        0.504 s, elapsed        0.504 s

  Updating Kohn-Sham eigenvalues and eigenvectors using ELSI and the ELPA eigensolver.
  Finished Cholesky decomposition
  | Time :     0.000 s
  Finished transformation to standard eigenproblem
  | Time :     0.000 s
  Starting LAPACK eigensolver
  Finished solving standard eigenproblem
  | Time :     0.002 s
  Finished back-transformation of eigenvectors
  | Time :     0.000 s

  Obtaining occupation numbers and chemical potential using ELSI.
  | Chemical potential (Fermi level):    -3.72866768eV
  Highest occupied state (VBM) at     -5.47363151 eV
  | Occupation number:      2.00000000

  Lowest unoccupied state (CBM) at    -1.65681627 eV
  | Occupation number:      0.00000000

  Overall HOMO-LUMO gap:      3.81681524 eV.

  Total energy components:
  | Sum of eigenvalues            :        -180.55365585 Ha       -4913.11495231 eV
  | XC energy correction          :         -42.64530505 Ha       -1160.43779295 eV
  | XC potential correction       :          54.82729250 Ha        1491.92653721 eV
  | Free-atom electrostatic energy:        -146.86236326 Ha       -3996.32823513 eV
  | Hartree energy correction     :          -8.24391553 Ha        -224.32835530 eV
  | vdW energy correction         :           0.00000000 Ha           0.00000000 eV
  | Entropy correction            :           0.00000000 Ha           0.00000000 eV
  | ---------------------------
  | Total energy                  :        -323.47794720 Ha       -8802.28279848 eV
  | Total energy, T -> 0          :        -323.47794720 Ha       -8802.28279848 eV  <-- do not rely on this value for anything but (periodic) metals
  | Electronic free energy        :        -323.47794720 Ha       -8802.28279848 eV

  Derived energy quantities:
  | Kinetic energy                :         322.63493451 Ha        8779.34325617 eV
  | Electrostatic energy          :        -603.46757666 Ha      -16421.18826171 eV
  | Energy correction for multipole
  | error in Hartree potential    :           0.04177478 Ha           1.13674960 eV
  | Sum of eigenvalues per atom                           :        -377.93191941 eV
  | Total energy (T->0) per atom                          :        -677.09867681 eV  <-- do not rely on this value for anything but (periodic) metals
  | Electronic free energy per atom                       :        -677.09867681 eV

  Self-consistency convergence accuracy:
  | Change of charge density      :  0.1059E-01
  | Change of sum of eigenvalues  :  0.8013E+00 eV
  | Change of total energy        :  0.1043E-02 eV

  End self-consistency iteration #     6       :  max(cpu_time)    wall_clock(cpu1)
  | Time for this iteration                    :        1.189 s           1.197 s
  | Charge density update                      :        0.386 s           0.387 s
  | Density mixing                             :        0.012 s           0.012 s
  | Hartree multipole update                   :        0.009 s           0.009 s
  | Hartree multipole summation                :        0.283 s           0.282 s
  | Integration                                :        0.498 s           0.504 s
  | Solution of K.-S. eqns.                    :        0.002 s           0.002 s
  | Total energy evaluation                    :        0.000 s           0.000 s

  Partial memory accounting:
  | Current value for overall tracked memory usage on task 0  :           0.166 MB
  | Peak value for overall tracked memory usage on task 0     :           0.692 MB after allocating gradient_basis_wave
  | Largest tracked array allocation on task 0 so far         :           0.394 MB  when allocating gradient_basis_wave
  Note:  These values currently only include a subset of arrays which are explicitly tracked.
  The "true" memory usage will be greater.
------------------------------------------------------------

------------------------------------------------------------
          Begin self-consistency iteration #    7

  Date     :  20200815, Time     :  003848.947
------------------------------------------------------------
  Evaluating new KS density.
  Integration grid: deviation in total charge (<rho> - N_e) =   1.421085E-14
  Pulay mixing of updated and previous charge densities.

  Evaluating partitioned Hartree potential by multipole expansion.
  | Analytical far-field extrapolation by fixed multipoles:
  | Hartree multipole sum: apparent total charge =  -0.425306E-03
  Summing up the Hartree potential.
  Time summed over all CPUs for potential: real work        0.282 s, elapsed        0.282 s
  | RMS charge density error from multipole expansion :   0.256594E-01

  Integrating Hamiltonian matrix: batch-based integration.
  Time summed over all CPUs for integration: real work        0.495 s, elapsed        0.495 s

  Updating Kohn-Sham eigenvalues and eigenvectors using ELSI and the ELPA eigensolver.
  Finished Cholesky decomposition
  | Time :     0.000 s
  Finished transformation to standard eigenproblem
  | Time :     0.000 s
  Starting LAPACK eigensolver
  Finished solving standard eigenproblem
  | Time :     0.002 s
  Finished back-transformation of eigenvectors
  | Time :     0.000 s

[...]
  |   Hirshfeld dipole moment :      0.05856456
  |   Hirshfeld second moments:      0.01932110      -0.02879819      -0.01730875
  |                                 -0.02879819      -0.02376928       0.00729239
  |                                 -0.01730875       0.00729239      -0.01912424
  ----------------------------------------------------------------------
  | Atom    12: O
  |   Hirshfeld charge        :     -0.16517631
  |   Free atom volume        :     23.61338643
  |   Hirshfeld volume        :     20.84078248
  |   Hirshfeld dipole vector :      0.00255317       0.03508708       0.02377168
  |   Hirshfeld dipole moment :      0.04245839
  |   Hirshfeld second moments:      0.11090795       0.00515257      -0.01486719
  |                                  0.00515257       0.03418232       0.00539146
  |                                 -0.01486719       0.00539146       0.02800497
  ----------------------------------------------------------------------
  | Atom    13: H
  |   Hirshfeld charge        :      0.18743043
  |   Free atom volume        :      9.95071624
  |   Hirshfeld volume        :      5.99777298
  |   Hirshfeld dipole vector :     -0.12143160       0.02227242       0.04084336
  |   Hirshfeld dipole moment :      0.13003797
  |   Hirshfeld second moments:      0.12508204       0.00438562      -0.00266808
  |                                  0.00438562       0.12106791       0.00123503
  |                                 -0.00266808       0.00123503       0.11184451
  ----------------------------------------------------------------------


  Total energy components:
  | Sum of eigenvalues            :        -180.55506503 Ha       -4913.15329791 eV
  | XC energy correction          :         -42.64169737 Ha       -1160.33962290 eV
  | XC potential correction       :          54.82271065 Ha        1491.80185885 eV
  | Free-atom electrostatic energy:        -146.86236326 Ha       -3996.32823513 eV
  | Hartree energy correction     :          -8.24150604 Ha        -224.26278969 eV
  | vdW energy correction         :          -0.00334403 Ha          -0.09099581 eV
  | Entropy correction            :           0.00000000 Ha           0.00000000 eV
  | ---------------------------
  | Total energy                  :        -323.48126508 Ha       -8802.37308260 eV
  | Total energy, T -> 0          :        -323.48126508 Ha       -8802.37308260 eV  <-- do not rely on this value for anything but (periodic) metals
  | Electronic free energy        :        -323.48126508 Ha       -8802.37308260 eV

  Derived energy quantities:
  | Kinetic energy                :         322.59710331 Ha        8778.31381683 eV
  | Electrostatic energy          :        -603.43332699 Ha      -16420.25628072 eV
  | Energy correction for multipole
  | error in Hartree potential    :           0.04181071 Ha           1.13772742 eV
  | Sum of eigenvalues per atom                           :        -377.93486907 eV
  | Total energy (T->0) per atom                          :        -677.10562174 eV  <-- do not rely on this value for anything but (periodic) metals
  | Electronic free energy per atom                       :        -677.10562174 eV

  atomic forces [eV/Ang]:
  -----------------------
  atom #    1
   Hellmann-Feynman              :  0.409694E+00 -0.461785E+00  0.591395E+00
   Ionic forces                  :  0.000000E+00  0.000000E+00  0.000000E+00
   Multipole                     :  0.118371E-01  0.191871E+00 -0.208605E+00
   Pulay + GGA                   : -0.880532E+00  0.231900E+00 -0.120431E+01
   Van der Waals                 :  0.703429E-02  0.605543E-02 -0.271019E-02
   ----------------------------------------------------------------
   Total forces(   1)            : -0.451967E+00 -0.319589E-01 -0.824233E+00
  atom #    2
   Hellmann-Feynman              :  0.255515E+00  0.846352E-01 -0.126412E+00
   Ionic forces                  :  0.000000E+00  0.000000E+00  0.000000E+00
   Multipole                     :  0.188501E+00  0.207377E-01  0.112868E-02
   Pulay + GGA                   : -0.147548E+00  0.250339E-01  0.331536E-01
   Van der Waals                 :  0.343599E-02 -0.387521E-02 -0.627760E-02
   ----------------------------------------------------------------
   Total forces(   2)            :  0.299904E+00  0.126532E+00 -0.984071E-01
  atom #    3
   Hellmann-Feynman              :  0.125845E+01  0.111573E+02 -0.310924E+01
   Ionic forces                  :  0.000000E+00  0.000000E+00  0.000000E+00
   Multipole                     : -0.216293E+00  0.251822E+00 -0.867199E+00
   Pulay + GGA                   : -0.227755E+00 -0.106641E+02  0.463553E+01
   Van der Waals                 :  0.242938E-02 -0.677012E-02 -0.681250E-02
   ----------------------------------------------------------------
   Total forces(   3)            :  0.816830E+00  0.738304E+00  0.652286E+00
  atom #    4
   Hellmann-Feynman              : -0.240933E+00 -0.293766E+00 -0.745625E-01
   Ionic forces                  :  0.000000E+00  0.000000E+00  0.000000E+00
   Multipole                     :  0.197352E-01 -0.694169E-01 -0.973050E-01
   Pulay + GGA                   : -0.110619E+00  0.193298E+00  0.809665E-01
   Van der Waals                 :  0.260570E-03  0.684082E-02 -0.607887E-02
   ----------------------------------------------------------------
   Total forces(   4)            : -0.331556E+00 -0.163044E+00 -0.969799E-01
  atom #    5
   Hellmann-Feynman              : -0.110498E+00 -0.261559E+00 -0.161466E+00
   Ionic forces                  :  0.000000E+00  0.000000E+00  0.000000E+00
   Multipole                     : -0.799126E-01 -0.555299E-01 -0.550774E-01
   Pulay + GGA                   :  0.225764E+00  0.107453E+00 -0.292790E-01
   Van der Waals                 :  0.207186E-03  0.270169E-02 -0.114140E-01
   ----------------------------------------------------------------
   Total forces(   5)            :  0.355605E-01 -0.206934E+00 -0.257237E+00
  atom #    6
   Hellmann-Feynman              :  0.340674E+00 -0.359944E+00  0.443448E+00
   Ionic forces                  :  0.000000E+00  0.000000E+00  0.000000E+00
   Multipole                     : -0.141394E+00  0.653774E+00  0.241329E+00
   Pulay + GGA                   :  0.816953E-02 -0.667775E+00 -0.550105E+00
   Van der Waals                 : -0.117490E-02  0.600449E-02 -0.756667E-03
   ----------------------------------------------------------------
   Total forces(   6)            :  0.206275E+00 -0.367941E+00  0.133915E+00
  atom #    7
   Hellmann-Feynman              : -0.254679E+00 -0.391387E-01 -0.363717E-01
   Ionic forces                  :  0.000000E+00  0.000000E+00  0.000000E+00
   Multipole                     : -0.116451E+00  0.502124E-01  0.277683E-01
   Pulay + GGA                   :  0.111385E+00  0.423040E-01  0.752740E-02
   Van der Waals                 : -0.247388E-02  0.228268E-02  0.635539E-02
   ----------------------------------------------------------------
   Total forces(   7)            : -0.262219E+00  0.556605E-01  0.527936E-02
  atom #    8
   Hellmann-Feynman              :  0.248463E-01 -0.665318E-01  0.164620E+00
   Ionic forces                  :  0.000000E+00  0.000000E+00  0.000000E+00
   Multipole                     :  0.171671E-01  0.674119E-01  0.123999E+00
   Pulay + GGA                   : -0.367404E-01 -0.369605E-01 -0.903499E-01
   Van der Waals                 : -0.302913E-02  0.111714E-01  0.148156E-02
   ----------------------------------------------------------------
   Total forces(   8)            :  0.224390E-02 -0.249090E-01  0.199751E+00
  atom #    9
   Hellmann-Feynman              :  0.679364E-01  0.477223E-02 -0.190759E+00
   Ionic forces                  :  0.000000E+00  0.000000E+00  0.000000E+00
   Multipole                     :  0.211156E-01  0.133418E+00 -0.917561E-02
   Pulay + GGA                   : -0.512631E-01 -0.116857E+00  0.164173E-01
   Van der Waals                 : -0.284029E-02  0.212232E-02  0.345100E-02
   ----------------------------------------------------------------
   Total forces(   9)            :  0.349486E-01  0.234559E-01 -0.180067E+00
  atom #   10
   Hellmann-Feynman              :  0.372062E+01  0.582718E+01  0.215246E+01
   Ionic forces                  :  0.000000E+00  0.000000E+00  0.000000E+00
   Multipole                     :  0.772403E-01 -0.550381E-01  0.254346E+00
   Pulay + GGA                   : -0.126081E+01 -0.368040E+01 -0.531089E+00
   Van der Waals                 :  0.294956E-02 -0.157247E-01  0.935250E-02
   ----------------------------------------------------------------
   Total forces(  10)            :  0.254000E+01  0.207601E+01  0.188507E+01
  atom #   11
   Hellmann-Feynman              :  0.404560E+01 -0.220280E+01  0.137439E+02
   Ionic forces                  :  0.000000E+00  0.000000E+00  0.000000E+00
   Multipole                     :  0.486913E-01 -0.655188E+00  0.820468E+00
   Pulay + GGA                   : -0.340197E+01  0.352882E+01 -0.133550E+02
   Van der Waals                 : -0.203165E-02 -0.116426E-01  0.198991E-02
   ----------------------------------------------------------------
   Total forces(  11)            :  0.690288E+00  0.659182E+00  0.121137E+01
  atom #   12
   Hellmann-Feynman              :  0.127676E+01 -0.944343E+01 -0.128923E+02
   Ionic forces                  :  0.000000E+00  0.000000E+00  0.000000E+00
   Multipole                     : -0.632962E+00 -0.139314E+01 -0.506989E+00
   Pulay + GGA                   : -0.349194E+01  0.900617E+01  0.109368E+02
   Van der Waals                 : -0.147326E-02  0.902796E-03  0.970707E-02
   ----------------------------------------------------------------
   Total forces(  12)            : -0.284962E+01 -0.182949E+01 -0.245283E+01
  atom #   13
   Hellmann-Feynman              : -0.104724E+01 -0.932671E+00 -0.396594E-01
   Ionic forces                  :  0.000000E+00  0.000000E+00  0.000000E+00
   Multipole                     : -0.581781E-01  0.932041E-02  0.791928E-02
   Pulay + GGA                   :  0.372241E+00 -0.133148E+00 -0.149443E+00
   Van der Waals                 : -0.329388E-02 -0.689970E-04  0.171241E-02
   ----------------------------------------------------------------
   Total forces(  13)            : -0.736470E+00 -0.105657E+01 -0.179471E+00

  Timings for VdW correction (Tkatchenko-Scheffler 2009 or later):
  | CPU time:        0.089 s, Wall clock time:        0.090 s.
  Removing unitary transformations (pure translations, rotations) from forces on atoms.
  Atomic forces before filtering:
  | Net force on center of mass :  -0.578726E-02 -0.169782E-02 -0.154751E-02 eV/A
  | Net torque on center of mass:  -0.625707E-02  0.439903E-02 -0.879479E-02 eV
  Atomic forces after filtering:
  | Net force on center of mass :  -0.446015E-15  0.178406E-15  0.423715E-15 eV/A
  | Net torque on center of mass:   0.122731E-14  0.000000E+00 -0.944085E-15 eV

  Energy and forces in a compact form:
  | Total energy uncorrected      :         -0.880237308260039E+04 eV
  | Total energy corrected        :         -0.880237308260039E+04 eV  <-- do not rely on this value for anything but (periodic) metals
  | Electronic free energy        :         -0.880237308260039E+04 eV
  Total atomic forces (unitary forces cleaned) [eV/Ang]:
  |   1         -0.451543262769696E+00         -0.316633440301603E-01         -0.824018512264772E+00
  |   2          0.300327348562219E+00          0.127135337234461E+00         -0.980373402003127E-01
  |   3          0.817454767569275E+00          0.738679212039464E+00          0.652431982661893E+00
  |   4         -0.330678778121444E+00         -0.162416946920118E+00         -0.968425668229225E-01
  |   5          0.362824358328646E-01         -0.206827234163988E+00         -0.257278659964521E+00
  |   6          0.206238912577146E+00         -0.367895711801186E+00          0.134249546740973E+00
  |   7         -0.262265156049368E+00          0.553953226377862E-01          0.546282684711725E-02
  |   8          0.205755486985241E-02         -0.249182751284014E-01          0.200139679098753E+00
  |   9          0.347310470196227E-01          0.236796742149958E-01         -0.179543602231540E+00
  |  10          0.254067811419245E+01          0.207608554827425E+01          0.188503559004049E+01
  |  11          0.690884270968202E+00          0.659162757670355E+00          0.121133185923428E+01
  |  12         -0.284860560707635E+01         -0.182951780915448E+01         -0.245309680784301E+01
  |  13         -0.735561647574771E+00         -0.105689853087298E+01         -0.179833995296436E+00

  ------------------------------------ 
  Start decomposition of the XC Energy 
  ------------------------------------ 
  X and C from original XC functional choice 
  Hartree-Fock Energy :          0.000000000 Ha              0.000000000 eV
  X Energy            :        -41.041010232 Ha          -1116.782709681 eV
  C Energy            :         -1.600687140 Ha            -43.556913223 eV
  Total XC Energy     :        -42.641697371 Ha          -1160.339622904 eV
  ------------------------------------ 
  LDA X and C from self-consistent density 
  X Energy LDA        :        -37.259614405 Ha          -1013.885693890 eV
  C Energy LDA        :         -3.138765083 Ha            -85.410143517 eV
  ------------------------------------ 
  End decomposition of the XC Energy 
  ------------------------------------ 

------------------------------------------------------------

------------------------------------------------------------------------------
  Final output of selected total energy values:

  The following output summarizes some interesting total energy values
  at the end of a run (AFTER all relaxation, molecular dynamics, etc.).

  | Total energy of the DFT / Hartree-Fock s.c.f. calculation      :          -8802.373082600 eV
  | Final zero-broadening corrected energy (caution - metals only) :          -8802.373082600 eV
  | For reference only, the value of 1 Hartree used in FHI-aims is :             27.211384500 eV

  Before relying on these values, please be sure to understand exactly which
  total energy value is referred to by a given number. Different objects may
  all carry the same name 'total energy'. Definitions:

  Total energy of the DFT / Hartree-Fock s.c.f. calculation:
  | Note that this energy does not include ANY quantities calculated after the
  | s.c.f. cycle, in particular not ANY RPA, MP2, etc. many-body perturbation terms.

  Final zero-broadening corrected energy:
  | For metallic systems only, a broadening of the occupation numbers at the Fermi
  | level can be extrapolated back to zero broadening by an electron-gas inspired
  | formula. For all systems that are not real metals, this value can be
  | meaningless and should be avoided.

------------------------------------------------------------------------------
  Methods described in the following list of references were used in this FHI-aims run.
  If you publish the results, please make sure to cite these reference if they apply.
  FHI-aims is an academic code, and for our developers (often, Ph.D. students
  and postdocs), scientific credit in the community is essential.
  Thank you for helping us!

  For any use of FHI-aims, please cite:

    Volker Blum, Ralf Gehrke, Felix Hanke, Paula Havu, Ville Havu,
    Xinguo Ren, Karsten Reuter, and Matthias Scheffler
    'Ab initio molecular simulations with numeric atom-centered orbitals'
    Computer Physics Communications 180, 2175-2196 (2009)
    http://dx.doi.org/10.1016/j.cpc.2009.06.022


  The scalable eigensolver library ELPA was used in your run.
  ELPA is essential especially for large systems on hundreds or thousands of CPUs.
  For ELPA, please cite:

    Andreas Marek, Volker Blum, Rainer Johanni, Ville Havu, Bruno Lang,
    Thomas Auckenthaler, Alexander Heinecke, Hans-Joachim Bungartz, and Hermann Lederer,
    'The ELPA Library - Scalable Parallel Eigenvalue Solutions
    for Electronic Structure Theory and Computational Science'
    The Journal of Physics: Condensed Matter 26, 213201 (2014).
    http://dx.doi.org/10.1088/0953-8984/26/21/213201


  The ELSI infrastructure was used in your run to solve the Kohn-Sham electronic structure.
  Please check out http://elsi-interchange.org to learn more.
  If scalability is important for your project, please acknowledge ELSI by citing:

    V. W-z. Yu, F. Corsetti, A. Garcia, W. P. Huhn, M. Jacquelin, W. Jia,
    B. Lange, L. Lin, J. Lu, W. Mi, A. Seifitokaldani, A. Vazquez-Mayagoitia,
    C. Yang, H. Yang, and V. Blum
    'ELSI: A unified software interface for Kohn-Sham electronic structure solvers'
    Computer Physics Communications 222, 267-285 (2018).
    http://dx.doi.org/10.1016/j.cpc.2017.09.007


  For the real-space grid partitioning and parallelization used in this calculation, please cite:

    Ville Havu, Volker Blum, Paula Havu, and Matthias Scheffler,
    'Efficient O(N) integration for all-electron electronic structure calculation'
    'using numerically tabulated basis functions'
    Journal of Computational Physics 228, 8367-8379 (2009).
    http://dx.doi.org/10.1016/j.jcp.2009.08.008

  Of course, there are many other important community references, e.g., those cited in the
  above references. Our list is limited to references that describe implementations in the
  FHI-aims code. The reason is purely practical (length of this list) - please credit others as well.

------------------------------------------------------------
          Leaving FHI-aims.
          Date     :  20200815, Time     :  003903.226

          Computational steps:
          | Number of self-consistency cycles          :           16
          | Number of SCF (re)initializations          :            1

          Detailed time accounting                     :  max(cpu_time)    wall_clock(cpu1)
          | Total time                                 :       22.664 s          22.734 s
          | Preparation time                           :        0.145 s           0.146 s
          | Boundary condition initalization           :        0.000 s           0.000 s
          | Grid partitioning                          :        0.111 s           0.112 s
          | Preloading free-atom quantities on grid    :        0.002 s           0.003 s
          | Free-atom superposition energy             :        0.085 s           0.085 s
          | Total time for integrations                :        8.665 s           8.680 s
          | Total time for solution of K.-S. equations :        0.037 s           0.037 s
          | Total time for density & force components  :        7.119 s           7.131 s
          | Total time for mixing                      :        0.212 s           0.214 s
          | Total time for Hartree multipole update    :        0.141 s           0.143 s
          | Total time for Hartree multipole sum       :        5.751 s           5.750 s
          | Total time for total energy evaluation     :        0.003 s           0.003 s
          | Total time for vdW correction              :        0.089 s           0.090 s

          Partial memory accounting:
          | Residual value for overall tracked memory usage across tasks :           0.000 MB (should be 0.000 MB)
          | Peak values for overall tracked memory usage (after allocating hessian_basis_wave):
          |   Minimum:        1.612 MB (on task 1)
          |   Maximum:        1.612 MB (on task 1)
          |   Average:        1.612 MB
          | Largest tracked array allocation (hessian_basis_wave):
          |   Minimum:        0.788 MB (on task 1)
          |   Maximum:        0.788 MB (on task 1)
          |   Average:        0.788 MB
          Note:  These values currently only include a subset of arrays which are explicitly tracked.
          The "true" memory usage will be greater.

          Have a nice day.
------------------------------------------------------------
