  MPI-parallelism will be employed.
------------------------------------------------------------
          Invoking FHI-aims ...
          Version 171221_1
          Compiled on 2019/09/09 at 14:39:39 on host puhti-login2.bullx.

          When using FHI-aims, please cite the following reference:

          Volker Blum, Ralf Gehrke, Felix Hanke, Paula Havu,
          Ville Havu, Xinguo Ren, Karsten Reuter, and Matthias Scheffler,
          'Ab Initio Molecular Simulations with Numeric Atom-Centered Orbitals',
          Computer Physics Communications 180, 2175-2196 (2009)

          For any questions about FHI-aims, please visit the aimsclub website
          with its forums and wiki. Contributions to both the forums and the
          wiki are warmly encouraged - they are for you, and everyone is welcome there.

------------------------------------------------------------



  Date     :  20200815, Time     :  003219.469
  Time zero on CPU 1             :   0.116800000000000E-01  s.
  Internal wall clock time zero  :           366683539.469  s.

  FHI-aims created a unique identifier for this run for later identification
  aims_uuid : F8458E99-68A8-4583-A9ED-1DFB9968C49A

  Using        1 parallel tasks.
  Task        0 on host r16c11.bullx reporting.

  Performing system and environment tests:
  | Environment variable OMP_NUM_THREADS correctly set to 1.
  | Stacksize not measured: no C compiler
  | Checking for scalapack...
  | Testing pdtran()...
  | All pdtran() tests passed.

  Obtaining array dimensions for all initial allocations:
  
  -----------------------------------------------------------------------
  Parsing control.in (first pass over file, find array dimensions only).
  The contents of control.in will be repeated verbatim below
  unless switched off by setting 'verbatim_writeout .false.' .
  in the first line of control.in .
  -----------------------------------------------------------------------
  
  #########################################################################################
  #
  #  Volker Blum, FHI 2009 : Test run input file control.in for simple H2O
  #
  #########################################################################################
  #
  #  Physical model
  #
    xc                 pbe
    vdw_correction_hirshfeld
    spin               none
    relativistic       none
    charge             0.
  #
  #  SCF convergence
  #
    occupation_type    gaussian 0.01
    mixer              pulay
      n_max_pulay        10
      charge_mix_param   0.2
    sc_accuracy_rho    1E-5
    sc_accuracy_eev    1E-3
    sc_accuracy_etot   1E-6
    sc_accuracy_forces 1E-4
    sc_iter_limit      100
  #
  #  Relaxation
  #
  #  relax_geometry   bfgs 1.e-3
  #
  ################################################################################
  #
  #  FHI-aims code project
  #  VB, Fritz-Haber Institut, 2009
  #
  #  Suggested "light" defaults for H atom (to be pasted into control.in file)
  #  Be sure to double-check any results obtained with these settings for post-processing,
  #  e.g., with the "tight" defaults and larger basis sets.
  #
  ################################################################################
    species        H
  #     global species definitions
      nucleus             1
      mass                1.00794
  #
      l_hartree           4
  #
      cut_pot             3.5  1.5  1.0
      basis_dep_cutoff    1e-4
  #
      radial_base         24 5.0
      radial_multiplier   1
      angular_grids       specified
        division   0.2421   50
        division   0.3822  110
        division   0.4799  194
        division   0.5341  302
  #      division   0.5626  434
  #      division   0.5922  590
  #      division   0.6542  770
  #      division   0.6868 1202
  #      outer_grid  770
        outer_grid  302
  ################################################################################
  #
  #  Definition of "minimal" basis
  #
  ################################################################################
  #     valence basis states
      valence      1  s   1.
  #     ion occupancy
      ion_occ      1  s   0.5
  ################################################################################
  #
  #  Suggested additional basis functions. For production calculations,
  #  uncomment them one after another (the most important basis functions are
  #  listed first).
  #
  #  Basis constructed for dimers: 0.5 A, 0.7 A, 1.0 A, 1.5 A, 2.5 A
  #
  ################################################################################
  #  "First tier" - improvements: -1014.90 meV to -62.69 meV
       hydro 2 s 2.1
       hydro 2 p 3.5
  #  "Second tier" - improvements: -12.89 meV to -1.83 meV
  #     hydro 1 s 0.85
  #     hydro 2 p 3.7
  #     hydro 2 s 1.2
  #     hydro 3 d 7
  #  "Third tier" - improvements: -0.25 meV to -0.12 meV
  #     hydro 4 f 11.2
  #     hydro 3 p 4.8
  #     hydro 4 d 9
  #     hydro 3 s 3.2
  ################################################################################
  #
  #  FHI-aims code project
  #  VB, Fritz-Haber Institut, 2009
  #
  #  Suggested "light" defaults for C atom (to be pasted into control.in file)
  #  Be sure to double-check any results obtained with these settings for post-processing,
  #  e.g., with the "tight" defaults and larger basis sets.
  #
  ################################################################################
    species        C
  #     global species definitions
      nucleus             6
      mass                12.0107
  #
      l_hartree           4
  #
      cut_pot             3.5  1.5  1.0
      basis_dep_cutoff    1e-4
  #
      radial_base         34 5.0
      radial_multiplier   1
      angular_grids specified
        division   0.3326   50
        division   0.5710  110
        division   0.7727  194
        division   0.8772  302
  #      division   0.9334  434
  #      division   0.9625  590
  #      division   0.9924  770
  #      division   1.0230  974
  #      division   1.4589 1202
  #     outer_grid  974
       outer_grid 302
  ################################################################################
  #
  #  Definition of "minimal" basis
  #
  ################################################################################
  #     valence basis states
      valence      2  s   2.
      valence      2  p   2.
  #     ion occupancy
      ion_occ      2  s   1.
      ion_occ      2  p   1.
  ################################################################################
  #
  #  Suggested additional basis functions. For production calculations,
  #  uncomment them one after another (the most important basis functions are
  #  listed first).
  #
  #  Constructed for dimers: 1.0 A, 1.25 A, 1.5 A, 2.0 A, 3.0 A
  #
  ################################################################################
  #  "First tier" - improvements: -1214.57 meV to -155.61 meV
       hydro 2 p 1.7
       hydro 3 d 6
       hydro 2 s 4.9
  #  "Second tier" - improvements: -67.75 meV to -5.23 meV
  #     hydro 4 f 9.8
  #     hydro 3 p 5.2
  #     hydro 3 s 4.3
  #     hydro 5 g 14.4
  #     hydro 3 d 6.2
  #  "Third tier" - improvements: -2.43 meV to -0.60 meV
  #     hydro 2 p 5.6
  #     hydro 2 s 1.4
  #     hydro 3 d 4.9
  #     hydro 4 f 11.2
  #  "Fourth tier" - improvements: -0.39 meV to -0.18 meV
  #     hydro 2 p 2.1
  #     hydro 5 g 16.4
  #     hydro 4 d 13.2
  #     hydro 3 s 13.6
  #     hydro 4 f 17.6
  #  Further basis functions - improvements: -0.08 meV and below
  #     hydro 3 s 2
  #     hydro 3 p 6
  #     hydro 4 d 20
  ################################################################################
  #
  #  FHI-aims code project
  #  VB, Fritz-Haber Institut, 2009
  #
  #  Suggested "light" defaults for N atom (to be pasted into control.in file)
  #  Be sure to double-check any results obtained with these settings for post-processing,
  #  e.g., with the "tight" defaults and larger basis sets.
  #
  ################################################################################
    species        N
  #     global species definitions
      nucleus             7
      mass                14.0067
  #
      l_hartree           4
  #
      cut_pot             3.5  1.5  1.0
      basis_dep_cutoff    1e-4
  #
      radial_base         35 5.0
      radial_multiplier   1
      angular_grids       specified
        division   0.2599   50
        division   0.4601  110
        division   0.5885  194
        division   0.6503  302
  #      division   0.6939  434
  #      division   0.7396  590
  #      division   0.7632  770
  #      division   0.8122  974
  #      division   1.1604 1202
  #      outer_grid  974
        outer_grid  302
  ################################################################################
  #
  #  Definition of "minimal" basis
  #
  ################################################################################
  #     valence basis states
      valence      2  s   2.
      valence      2  p   3.
  #     ion occupancy
      ion_occ      2  s   1.
      ion_occ      2  p   2.
  ################################################################################
  #
  #  Suggested additional basis functions. For production calculations,
  #  uncomment them one after another (the most important basis functions are
  #  listed first).
  #
  #  Constructed for dimers: 1.0 A, 1.1 A, 1.5 A, 2.0 A, 3.0 A
  #
  ################################################################################
  #  "First tier" - improvements: -1193.42 meV to -220.60 meV
       hydro 2 p 1.8
       hydro 3 d 6.8
       hydro 3 s 5.8
  #  "Second tier" - improvements: -80.21 meV to -6.86 meV
  #     hydro 4 f 10.8
  #     hydro 3 p 5.8
  #     hydro 1 s 0.8
  #     hydro 5 g 16
  #     hydro 3 d 4.9
  #  "Third tier" - improvements: -4.29 meV to -0.53 meV
  #     hydro 3 s 16
  #     ionic 2 p auto
  #     hydro 3 d 6.6
  #     hydro 4 f 11.6
  #  "Fourth tier" - improvements: -0.75 meV to -0.25 meV
  #     hydro 2 p 4.5
  #     hydro 2 s 2.4
  #     hydro 5 g 14.4
  #     hydro 4 d 14.4
  #     hydro 4 f 16.8
  # Further basis functions - -0.21 meV and below
  #     hydro 3 p 14.8
  #     hydro 3 s 4.4
  #     hydro 3 d 19.6
  #     hydro 5 g 12.8
  ################################################################################
  #
  #  FHI-aims code project
  #  VB, Fritz-Haber Institut, 2009
  #
  #  Suggested "light" defaults for O atom (to be pasted into control.in file)
  #  Be sure to double-check any results obtained with these settings for post-processing,
  #  e.g., with the "tight" defaults and larger basis sets.
  #
  ################################################################################
    species        O
  #     global species definitions
      nucleus             8
      mass                15.9994
  #
      l_hartree           4
  #
      cut_pot             3.5  1.5  1.0
      basis_dep_cutoff    1e-4
  #
      radial_base         36 5.0
      radial_multiplier   1
       angular_grids specified
        division   0.2659   50
        division   0.4451  110
        division   0.6052  194
        division   0.7543  302
  #      division   0.8014  434
  #      division   0.8507  590
  #      division   0.8762  770
  #      division   0.9023  974
  #      division   1.2339 1202
  #      outer_grid 974
        outer_grid 302
  ################################################################################
  #
  #  Definition of "minimal" basis
  #
  ################################################################################
  #     valence basis states
      valence      2  s   2.
      valence      2  p   4.
  #     ion occupancy
      ion_occ      2  s   1.
      ion_occ      2  p   3.
  ################################################################################
  #
  #  Suggested additional basis functions. For production calculations,
  #  uncomment them one after another (the most important basis functions are
  #  listed first).
  #
  #  Constructed for dimers: 1.0 A, 1.208 A, 1.5 A, 2.0 A, 3.0 A
  #
  ################################################################################
  #  "First tier" - improvements: -699.05 meV to -159.38 meV
       hydro 2 p 1.8
       hydro 3 d 7.6
       hydro 3 s 6.4
  #  "Second tier" - improvements: -49.91 meV to -5.39 meV
  #     hydro 4 f 11.6
  #     hydro 3 p 6.2
  #     hydro 3 d 5.6
  #     hydro 5 g 17.6
  #     hydro 1 s 0.75
  #  "Third tier" - improvements: -2.83 meV to -0.50 meV
  #     ionic 2 p auto
  #     hydro 4 f 10.8
  #     hydro 4 d 4.7
  #     hydro 2 s 6.8
  #  "Fourth tier" - improvements: -0.40 meV to -0.12 meV
  #     hydro 3 p 5
  #     hydro 3 s 3.3
  #     hydro 5 g 15.6
  #     hydro 4 f 17.6
  #     hydro 4 d 14
  # Further basis functions - -0.08 meV and below
  #     hydro 3 s 2.1
  #     hydro 4 d 11.6
  #     hydro 3 p 16
  #     hydro 2 s 17.2
  
  -----------------------------------------------------------------------
  Completed first pass over input file control.in .
  -----------------------------------------------------------------------
  
  
  -----------------------------------------------------------------------
  Parsing geometry.in (first pass over file, find array dimensions only).
  The contents of geometry.in will be repeated verbatim below
  unless switched off by setting 'verbatim_writeout .false.' .
  in the first line of geometry.in .
  -----------------------------------------------------------------------
  
  atom  0.00000 0.00000 0.00000 C
  atom  1.09300 0.00000 0.00000 H
  atom  -0.47961 0.00000 -1.41207 N
  atom  -1.49475 0.10637 -1.41271 H
  atom  -0.04414 0.77675 -1.90518 H
  atom  -0.49584 1.26211 0.72868 C
  atom  -1.58789 1.28919 0.74431 H
  atom  -0.13407 1.27425 1.75947 H
  atom  -0.13407 2.16087 0.22380 H
  atom  -0.39425 -1.28861 0.74398 C
  atom  -0.10189 -1.56493 1.88303 O
  atom  -1.10210 -2.13717 0.06896 O
  atom  -0.76566 -2.95514 0.47234 H
  
  -----------------------------------------------------------------------
  Completed first pass over input file geometry.in .
  -----------------------------------------------------------------------
  

  Basic array size parameters:
  | Number of species                 :        4
  | Number of atoms                   :       13
  | Max. basis fn. angular momentum   :        2
  | Max. atomic/ionic basis occupied n:        2
  | Max. number of basis fn. types    :        2
  | Max. radial fns per species/type  :        3
  | Max. logarithmic grid size        :     1301
  | Max. radial integration grid size :       36
  | Max. angular integration grid size:      302
  | Max. angular grid division number :        8
  | Radial grid for Hartree potential :     1301
  | Number of spin channels           :        1

------------------------------------------------------------
          Reading file control.in.
------------------------------------------------------------
  XC: Using PBE gradient-corrected functionals.
  Spin treatment: No spin polarisation.
  Non-relativistic treatment of kinetic energy.
  Charge =   0.000000E+00: Neutral system requested explicitly.
  Occupation type: Gaussian broadening, width =   0.100000E-01 eV.
  Using pulay charge density mixing.
  Pulay mixing - number of memorized iterations:   10
  Charge density mixing - mixing parameter:     0.2000
  Convergence accuracy of self-consistent charge density:  0.1000E-04
  Convergence accuracy of sum of eigenvalues:  0.1000E-02
  Convergence accuracy of total energy:  0.1000E-05
  Convergence accuracy of forces:  0.1000E-03
  Maximum number of s.-c. iterations  :   100
 
  Reading configuration options for species H                   .
  | Found nuclear charge :   1.0000
  | Found atomic mass :    1.00794000000000      amu
  | Found l_max for Hartree potential  :   4
  | Found cutoff potl. onset [A], width [A], scale factor :    3.50000    1.50000    1.00000
  | Threshold for basis-dependent cutoff potential is   0.100000E-03
  | Found data for basic radial integration grid :    24 points, outermost radius =    5.000 A
  | Found multiplier for basic radial grid :   1
  | Found angular grid specification: user-specified.
  | Specified grid contains     5 separate shells.
  | Check grid settings after all constraints further below.
  | Found free-atom valence shell :  1 s   1.000
  | No ionic wave fns used. Skipping ion_occ.
  | Found hydrogenic basis function :  2 s   2.100
  | Found hydrogenic basis function :  2 p   3.500
  Species H                   : Missing cutoff potential type.
  Defaulting to exp(1/x)/(1-x)^2 type cutoff potential.
  Species H : No 'logarithmic' tag. Using default grid for free atom:
  | Default logarithmic grid data [bohr] : 0.1000E-03 0.1000E+03 0.1012E+01
  Species H : On-site basis accuracy parameter (for Gram-Schmidt orthonormalisation) not specified.
  Using default value basis_acc =  0.1000000E-03.
  Species H                   : Using default innermost maximum threshold i_radial=  2 for radial functions.
  Species H                   : Default cutoff onset for free atom density etc. : 0.35000000E+01 AA.
  Species H                   : Basic radial grid will be enhanced according to radial_multiplier =   1, to contain    24 grid points.
 
  Reading configuration options for species C                   .
  | Found nuclear charge :   6.0000
  | Found atomic mass :    12.0107000000000      amu
  | Found l_max for Hartree potential  :   4
  | Found cutoff potl. onset [A], width [A], scale factor :    3.50000    1.50000    1.00000
  | Threshold for basis-dependent cutoff potential is   0.100000E-03
  | Found data for basic radial integration grid :    34 points, outermost radius =    5.000 A
  | Found multiplier for basic radial grid :   1
  | Found angular grid specification: user-specified.
  | Specified grid contains     5 separate shells.
  | Check grid settings after all constraints further below.
  | Found free-atom valence shell :  2 s   2.000
  | Found free-atom valence shell :  2 p   2.000
  | No ionic wave fns used. Skipping ion_occ.
  | No ionic wave fns used. Skipping ion_occ.
  | Found hydrogenic basis function :  2 p   1.700
  | Found hydrogenic basis function :  3 d   6.000
  | Found hydrogenic basis function :  2 s   4.900
  Species C                   : Missing cutoff potential type.
  Defaulting to exp(1/x)/(1-x)^2 type cutoff potential.
  Species C : No 'logarithmic' tag. Using default grid for free atom:
  | Default logarithmic grid data [bohr] : 0.1000E-03 0.1000E+03 0.1012E+01
  Species C : On-site basis accuracy parameter (for Gram-Schmidt orthonormalisation) not specified.
  Using default value basis_acc =  0.1000000E-03.
  Species C                   : Using default innermost maximum threshold i_radial=  2 for radial functions.
  Species C                   : Default cutoff onset for free atom density etc. : 0.35000000E+01 AA.
  Species C                   : Basic radial grid will be enhanced according to radial_multiplier =   1, to contain    34 grid points.
 
  Reading configuration options for species N                   .
  | Found nuclear charge :   7.0000
  | Found atomic mass :    14.0067000000000      amu
  | Found l_max for Hartree potential  :   4
  | Found cutoff potl. onset [A], width [A], scale factor :    3.50000    1.50000    1.00000
  | Threshold for basis-dependent cutoff potential is   0.100000E-03
  | Found data for basic radial integration grid :    35 points, outermost radius =    5.000 A
  | Found multiplier for basic radial grid :   1
  | Found angular grid specification: user-specified.
  | Specified grid contains     5 separate shells.
  | Check grid settings after all constraints further below.
  | Found free-atom valence shell :  2 s   2.000
  | Found free-atom valence shell :  2 p   3.000
  | No ionic wave fns used. Skipping ion_occ.
  | No ionic wave fns used. Skipping ion_occ.
  | Found hydrogenic basis function :  2 p   1.800
  | Found hydrogenic basis function :  3 d   6.800
  | Found hydrogenic basis function :  3 s   5.800
  Species N                   : Missing cutoff potential type.
  Defaulting to exp(1/x)/(1-x)^2 type cutoff potential.
  Species N : No 'logarithmic' tag. Using default grid for free atom:
  | Default logarithmic grid data [bohr] : 0.1000E-03 0.1000E+03 0.1012E+01
  Species N : On-site basis accuracy parameter (for Gram-Schmidt orthonormalisation) not specified.
  Using default value basis_acc =  0.1000000E-03.
  Species N                   : Using default innermost maximum threshold i_radial=  2 for radial functions.
  Species N                   : Default cutoff onset for free atom density etc. : 0.35000000E+01 AA.
  Species N                   : Basic radial grid will be enhanced according to radial_multiplier =   1, to contain    35 grid points.
 
  Reading configuration options for species O                   .
  | Found nuclear charge :   8.0000
  | Found atomic mass :    15.9994000000000      amu
  | Found l_max for Hartree potential  :   4
  | Found cutoff potl. onset [A], width [A], scale factor :    3.50000    1.50000    1.00000
  | Threshold for basis-dependent cutoff potential is   0.100000E-03
  | Found data for basic radial integration grid :    36 points, outermost radius =    5.000 A
  | Found multiplier for basic radial grid :   1
  | Found angular grid specification: user-specified.
  | Specified grid contains     5 separate shells.
  | Check grid settings after all constraints further below.
  | Found free-atom valence shell :  2 s   2.000
  | Found free-atom valence shell :  2 p   4.000
  | No ionic wave fns used. Skipping ion_occ.
  | No ionic wave fns used. Skipping ion_occ.
  | Found hydrogenic basis function :  2 p   1.800
  | Found hydrogenic basis function :  3 d   7.600
  | Found hydrogenic basis function :  3 s   6.400
  Species O                   : Missing cutoff potential type.
  Defaulting to exp(1/x)/(1-x)^2 type cutoff potential.
  Species O : No 'logarithmic' tag. Using default grid for free atom:
  | Default logarithmic grid data [bohr] : 0.1000E-03 0.1000E+03 0.1012E+01
  Species O : On-site basis accuracy parameter (for Gram-Schmidt orthonormalisation) not specified.
  Using default value basis_acc =  0.1000000E-03.
  Species O                   : Using default innermost maximum threshold i_radial=  2 for radial functions.
  Species O                   : Default cutoff onset for free atom density etc. : 0.35000000E+01 AA.
  Species O                   : Basic radial grid will be enhanced according to radial_multiplier =   1, to contain    36 grid points.
 
  Finished reading input file 'control.in'. Consistency checks are next.
 
  MPI_IN_PLACE appears to work with this MPI implementation.
  | Keeping use_mpi_in_place .true. (see manual).
  Target number of points in a grid batch is not set. Defaulting to  100
  Method for grid partitioning is not set. Defaulting to parallel hash+maxmin partitioning.
  Batch size limit is not set. Defaulting to    200
  By default, will store active basis functions for each batch.
  If in need of memory, prune_basis_once .false. can be used to disable this option.
  communication_type for Hartree potential was not specified.
  Defaulting to calc_hartree .
  Pulay mixer: Number of initial linear mixing iterations not set.
  Defaulting to    0 iterations.
  Work space size for distributed Hartree potential not set.
  Defaulting to   0.200000E+03 MB.
  Algorithm-dependent basis array size parameters:
  | n_max_pulay                         :       10
  Presetting      1001 iterations before the initial mixing cycle
  is restarted anyway using the sc_init_iter criterion / keyword.
  Presetting a factor      1.000 between actual scf density residual
  and density convergence criterion sc_accuracy_rho below which sc_init_iter
  takes no effect.
  Geometry relaxation not requested: no relaxation will be performed.
  Handling of forces: Unphysical translation and rotation will be removed from forces.
  No accuracy limit for integral partition fn. given. Defaulting to  0.1000E-14.
  No threshold value for u(r) in integrations given. Defaulting to  0.1000E-05.
  No accuracy for occupation numbers given. Defaulting to  0.1000E-12.
  No threshold value for occupation numbers given. Defaulting to  0.0000E+00.
  No accuracy for fermi level given. Defaulting to  0.1000E-19.
  Maximum # of iterations to find E_F not set. Defaulting to  200.
  Preferred method for the eigenvalue solver ('KS_method') not specified in 'control.in'.
  Defaulting to serial version, 'lapack_fast'.
  Will not use alltoall communication since running on < 1024 CPUs.
  Threshold for basis singularities not set.
  Default threshold for basis singularities:  0.1000E-04
  partition_type (choice of integration weights) for integrals was not specified.
  | Using a version of the partition function of Stratmann and coworkers ('stratmann_smoother').
  | At each grid point, the set of atoms used to build the partition table is smoothly restricted to
  | only those atoms whose free-atom density would be non-zero at that grid point.
  Partitioning for Hartree potential was not defined. Using partition_type for integrals.
  | Adjusted default value of keyword multip_moments_threshold to:       0.10000000E-11
  | This value may affect high angular momentum components of the Hartree potential in periodic systems.
  No q(lm)/r^(l+1) cutoff set for long-range Hartree potential.
  | Using default value of  0.100000E-09 .
  | Verify using the multipole_threshold keyword.
  Defaulting to new monopole extrapolation.
  Density update method: automatic selection selected.
------------------------------------------------------------


------------------------------------------------------------
          Reading geometry description geometry.in.
------------------------------------------------------------
  Input structure read successfully.
  The structure contains       13 atoms,  and a total of         48.000 electrons.

  Input geometry:
  | No unit cell requested.
  | Atomic structure:
  |       Atom                x [A]            y [A]            z [A]
  |    1: Species C             0.00000000        0.00000000        0.00000000
  |    2: Species H             1.09300000        0.00000000        0.00000000
  |    3: Species N            -0.47961000        0.00000000       -1.41207000
  |    4: Species H            -1.49475000        0.10637000       -1.41271000
  |    5: Species H            -0.04414000        0.77675000       -1.90518000
  |    6: Species C            -0.49584000        1.26211000        0.72868000
  |    7: Species H            -1.58789000        1.28919000        0.74431000
  |    8: Species H            -0.13407000        1.27425000        1.75947000
  |    9: Species H            -0.13407000        2.16087000        0.22380000
  |   10: Species C            -0.39425000       -1.28861000        0.74398000
  |   11: Species O            -0.10189000       -1.56493000        1.88303000
  |   12: Species O            -1.10210000       -2.13717000        0.06896000
  |   13: Species H            -0.76566000       -2.95514000        0.47234000
  |

  | The smallest distance between any two atoms is         0.97210196 AA.
  |
  | The first atom of this pair is atom number                     12 .
  | The second atom of this pair is atom number                    13 .

  Number of empty states per atom not set in control.in - providing a guess from actual geometry.
  | Total number of empty states used during s.c.f. cycle:       29
  If you use a very high smearing, use empty_states (per atom!) in control.in to increase this value.

  Structure-dependent array size parameters: 
  | Maximum number of distinct radial functions  :       21
  | Maximum number of basis functions            :      119
  | Number of Kohn-Sham states (occupied + empty):       53
------------------------------------------------------------

------------------------------------------------------------
          Preparing all fixed parts of the calculation.
------------------------------------------------------------
  Determining machine precision:
    2.225073858507201E-308
  Setting up grids for atomic and cluster calculations.

  Creating wave function, potential, and density for free atoms.

  Species: H

  List of occupied orbitals and eigenvalues:
    n    l              occ      energy [Ha]    energy [eV]
    1    0           1.0000        -0.237589        -6.4651


  Species: C

  List of occupied orbitals and eigenvalues:
    n    l              occ      energy [Ha]    energy [eV]
    1    0           2.0000       -10.038835      -273.1706
    2    0           2.0000        -0.502696       -13.6791
    2    1           2.0000        -0.191971        -5.2238


  Species: N

  List of occupied orbitals and eigenvalues:
    n    l              occ      energy [Ha]    energy [eV]
    1    0           2.0000       -14.128000      -384.4424
    2    0           2.0000        -0.681077       -18.5330
    2    1           3.0000        -0.259788        -7.0692


  Species: O

  List of occupied orbitals and eigenvalues:
    n    l              occ      energy [Ha]    energy [eV]
    1    0           2.0000       -18.898188      -514.2459
    2    0           2.0000        -0.878505       -23.9053
    2    1           4.0000        -0.331779        -9.0282

  Creating fixed part of basis set: Ionic, confined, hydrogenic.
 
  H                    hydrogenic:
 
  List of hydrogenic basis orbitals: 
    n    l      effective z      eigenvalue [eV]  inner max. [A]     outer max. [A]     outer radius [A]   
    2    0         2.100000       -14.9728           0.193243           1.317208           4.583499
    2    1         3.500000       -41.6669           0.602369           0.602369           3.723403
 
 
  C                    hydrogenic:
 
  List of hydrogenic basis orbitals: 
    n    l      effective z      eigenvalue [eV]  inner max. [A]     outer max. [A]     outer radius [A]   
    2    1         1.700000        -9.7616           1.230570           1.230570           4.607917
    3    2         6.000000       -54.4224           0.792453           0.792453           3.883070
    2    0         4.900000       -81.6679           0.082559           0.562749           3.078220
 
 
  N                    hydrogenic:
 
  List of hydrogenic basis orbitals: 
    n    l      effective z      eigenvalue [eV]  inner max. [A]     outer max. [A]     outer radius [A]   
    2    1         1.800000       -10.9749           1.177451           1.177451           4.573712
    3    2         6.800000       -69.9026           0.704619           0.704619           3.538137
    3    0         5.800000       -50.8545           0.067388           1.191934           4.250239
 
 
  O                    hydrogenic:
 
  List of hydrogenic basis orbitals: 
    n    l      effective z      eigenvalue [eV]  inner max. [A]     outer max. [A]     outer radius [A]   
    2    1         1.800000       -10.9749           1.164242           1.164242           4.578029
    3    2         7.600000       -87.3180           0.624125           0.624125           3.251020
    3    0         6.400000       -61.9207           0.061167           1.081902           4.001998
 

  Adding cutoff potential to free-atom effective potential.
  Creating atomic-like basis functions for current effective potential.

  Species H                   :

  List of atomic basis orbitals and eigenvalues:
    n    l      energy [Ha]    energy [eV]    outer radius [A]
    1    0        -0.237589        -6.4651       4.527807


  Species C                   :

  List of atomic basis orbitals and eigenvalues:
    n    l      energy [Ha]    energy [eV]    outer radius [A]
    1    0       -10.038835      -273.1706       1.934409
    2    0        -0.502696       -13.6791       4.496620
    2    1        -0.191971        -5.2238       4.551928


  Species N                   :

  List of atomic basis orbitals and eigenvalues:
    n    l      energy [Ha]    energy [eV]    outer radius [A]
    1    0       -14.128000      -384.4424       1.637919
    2    0        -0.681077       -18.5330       4.463241
    2    1        -0.259788        -7.0692       4.518138


  Species O                   :

  List of atomic basis orbitals and eigenvalues:
    n    l      energy [Ha]    energy [eV]    outer radius [A]
    1    0       -18.898188      -514.2459       1.415765
    2    0        -0.878505       -23.9053       4.413171
    2    1        -0.331779        -9.0282       4.522403

  Assembling full basis from fixed parts.
  | Species H :   atomic orbital   1 s accepted.
  | Species H :    hydro orbital   2 s accepted.
  | Species H :    hydro orbital   2 p accepted.
  | Species C :   atomic orbital   1 s accepted.
  | Species C :    hydro orbital   2 s accepted.
  | Species C :   atomic orbital   2 s accepted.
  | Species C :   atomic orbital   2 p accepted.
  | Species C :    hydro orbital   2 p accepted.
  | Species C :    hydro orbital   3 d accepted.
  | Species N :   atomic orbital   1 s accepted.
  | Species N :    hydro orbital   3 s accepted.
  | Species N :   atomic orbital   2 s accepted.
  | Species N :   atomic orbital   2 p accepted.
  | Species N :    hydro orbital   2 p accepted.
  | Species N :    hydro orbital   3 d accepted.
  | Species O :   atomic orbital   1 s accepted.
  | Species O :    hydro orbital   3 s accepted.
  | Species O :   atomic orbital   2 s accepted.
  | Species O :   atomic orbital   2 p accepted.
  | Species O :    hydro orbital   2 p accepted.
  | Species O :    hydro orbital   3 d accepted.
 
  Basis size parameters after reduction:
  | Total number of radial functions:       21
  | Total number of basis functions :      119
 
  Per-task memory consumption for arrays in subroutine allocate_ext:
  |           5.250512MB.
  Testing on-site integration grid accuracy.
  |  Species  Function  <phi|h_atom|phi> (log., in eV)  <phi|h_atom|phi> (rad., in eV)
           1        1                 -6.4663192853                 -6.4651273558
           1        2                 13.7111246313                 13.7170609718
           1        3                 25.2673269279                 25.2674696378
           2        4               -273.1705927641               -273.1705631568
           2        5                -10.7109323383                -10.7107120029
           2        6                 17.4381822266                 17.4352413244
           2        7                 -5.2255326521                 -5.2270484734
           2        8                  8.6835629259                  8.6603288385
           2        9                 27.4952418996                 27.4953360207
           3       10               -384.4424306495               -384.4423701208
           3       11                 12.5842251816                 12.5842222903
           3       12                -15.7264628251                -15.7264433455
           3       13                 -7.0696854293                 -7.0701769954
           3       14                  8.8090390882                  8.7901077751
           3       15                 35.9586762123                 35.9588528632
           4       16               -514.2458688638               -514.2457643834
           4       17                 15.1795651126                 15.1795290741
           4       18                -21.5359799773                -21.5360846186
           4       19                 -9.0283069236                 -9.0284644067
           4       20                  8.3027758564                  8.2834874195
           4       21                 45.8339351984                 45.8338762259

  Preparing densities etc. for the partition functions (integrals / Hartree potential).

  Preparations completed.
  max(cpu_time)          :      0.144 s.
  Wall clock time (cpu1) :      0.145 s.
------------------------------------------------------------

------------------------------------------------------------
          Begin self-consistency loop: Initialization.

          Date     :  20200815, Time     :  003219.627
------------------------------------------------------------

  Initializing index lists of integration centers etc. from given atomic structure:
  | Number of centers in hartree potential         :        13
  | Number of centers in hartree multipole         :        13
  | Number of centers in electron density summation:        13
  | Number of centers in basis integrals           :        13
  | Number of centers in integrals                 :        13
  | Number of centers in hamiltonian               :        13
  Partitioning the integration grid into batches with parallel hashing+maxmin method.
  | Number of batches:      950
  | Maximal batch size:     138
  | Minimal batch size:      66
  | Average batch size:      73.312
  | Standard deviation of batch sizes:      18.260

  Integration load balanced across     1 MPI tasks.
  Work distribution over tasks is as follows:
  Task     0 has      69646 integration points.
  Initializing partition tables, free-atom densities, potentials, etc. across the integration grid (initialize_grid_storage).
  | initialize_grid_storage: Actual outermost partition radius vs. multipole_radius_free
  | (-- VB: in principle, multipole_radius_free should be larger, hence this output)
  | Species        1: Confinement radius =              4.999999999999999 AA, multipole_radius_free =              5.054417573612229 AA.
  | Species        1: outer_partition_radius set to              5.054417573612229 AA .
  | Species        2: Confinement radius =              4.999999999999999 AA, multipole_radius_free =              5.019602836301480 AA.
  | Species        2: outer_partition_radius set to              5.019602836301480 AA .
  | Species        3: Confinement radius =              4.999999999999999 AA, multipole_radius_free =              5.043624274424571 AA.
  | Species        3: outer_partition_radius set to              5.043624274424571 AA .
  | Species        4: Confinement radius =              4.999999999999999 AA, multipole_radius_free =              5.048384829883283 AA.
  | Species        4: outer_partition_radius set to              5.048384829883283 AA .
  | Original list of interatomic distances with          13 x         13 entries is created.
  | Net number of integration points:    69646
  | of which are non-zero points    :    59550
  Renormalizing the initial density to the exact electron count on the 3D integration grid.
  | Initial density: Formal number of electrons (from input files) :      48.0000000000
  | Integrated number of electrons on 3D grid     :      47.9999741928
  | Charge integration error                      :      -0.0000258072
  | Normalization factor for density and gradient :       1.0000005377
  Obtaining max. number of non-zero basis functions in each batch (get_n_compute_maxes).
  | Maximal number of non-zero basis functions:      119 in task     0
  Selecting the method for density update.
  Loop over occupied states selected for charge density update.
  Allocating        0.050 MB for KS_eigenvector
  Integrating Hamiltonian matrix: batch-based integration.
  Time summed over all CPUs for integration: real work        0.489 s, elapsed        0.489 s
  Integrating overlap matrix.
  Time summed over all CPUs for integration: real work        0.211 s, elapsed        0.211 s

  Updating Kohn-Sham eigenvalues and eigenvectors using ELSI and the ELPA eigensolver.
  Overlap matrix is nonsingular
  | Lowest eigenvalue of overlap  :  0.57E-02
  | Highest eigenvalue of overlap :  0.61E+01
  Finished singularity check of overlap matrix
  | Time :     0.002 s
  Finished Cholesky decomposition
  | Time :     0.000 s
  Finished transformation to standard eigenproblem
  | Time :     0.000 s
  Starting LAPACK eigensolver
  Finished solving standard eigenproblem
  | Time :     0.002 s
  Finished back-transformation of eigenvectors
  | Time :     0.000 s

  Obtaining occupation numbers and chemical potential using ELSI.
  | Chemical potential (Fermi level):    -8.85433005eV
  Writing Kohn-Sham eigenvalues.

  State    Occupation    Eigenvalue [Ha]    Eigenvalue [eV]
      1       2.00000         -19.007570         -517.22230
      2       2.00000         -18.978059         -516.41925
      3       2.00000         -14.245788         -387.64761
      4       2.00000         -10.166790         -276.65245
      5       2.00000         -10.141240         -275.95719
      6       2.00000         -10.131933         -275.70393
      7       2.00000          -1.187138          -32.30366
      8       2.00000          -1.093448          -29.75423
      9       2.00000          -0.992143          -26.99759
     10       2.00000          -0.858567          -23.36279
     11       2.00000          -0.762792          -20.75663
     12       2.00000          -0.682444          -18.57025
     13       2.00000          -0.619911          -16.86863
     14       2.00000          -0.602405          -16.39228
     15       2.00000          -0.584524          -15.90570
     16       2.00000          -0.563666          -15.33812
     17       2.00000          -0.554827          -15.09760
     18       2.00000          -0.536185          -14.59033
     19       2.00000          -0.526314          -14.32173
     20       2.00000          -0.487613          -13.26864
     21       2.00000          -0.474951          -12.92407
     22       2.00000          -0.427249          -11.62605
     23       2.00000          -0.407061          -11.07668
     24       2.00000          -0.388080          -10.56020
     25       0.00000          -0.152982           -4.16285
     26       0.00000          -0.059876           -1.62930
     27       0.00000          -0.026995           -0.73458
     28       0.00000          -0.021956           -0.59745
     29       0.00000          -0.006294           -0.17127
     30       0.00000           0.009249            0.25167
     31       0.00000           0.022133            0.60228
     32       0.00000           0.042661            1.16087
     33       0.00000           0.046417            1.26307
     34       0.00000           0.057900            1.57554
     35       0.00000           0.078970            2.14887
     36       0.00000           0.134908            3.67102
     37       0.00000           0.152142            4.14000
     38       0.00000           0.204420            5.56256
     39       0.00000           0.208339            5.66919
     40       0.00000           0.224918            6.12033
     41       0.00000           0.255710            6.95822
     42       0.00000           0.274059            7.45754
     43       0.00000           0.290099            7.89400
     44       0.00000           0.302723            8.23752
     45       0.00000           0.326113            8.87398
     46       0.00000           0.347610            9.45896
     47       0.00000           0.380682           10.35889
     48       0.00000           0.390792           10.63399
     49       0.00000           0.443813           12.07676
     50       0.00000           0.457101           12.43836
     51       0.00000           0.515787           14.03527
     52       0.00000           0.543538           14.79042
     53       0.00000           0.593405           16.14737

  Highest occupied state (VBM) at    -10.56020395 eV
  | Occupation number:      2.00000000

  Lowest unoccupied state (CBM) at    -4.16284893 eV
  | Occupation number:      0.00000000

  Overall HOMO-LUMO gap:      6.39735502 eV.
  Calculating total energy contributions from superposition of free atom densities.

  Total energy components:
  | Sum of eigenvalues            :        -188.84139536 Ha       -5138.63581869 eV
  | XC energy correction          :         -41.78511050 Ha       -1137.03070807 eV
  | XC potential correction       :          53.71499144 Ha        1461.65928555 eV
  | Free-atom electrostatic energy:        -146.85899706 Ha       -3996.23663615 eV
  | Hartree energy correction     :           0.00000000 Ha           0.00000000 eV
  | vdW energy correction         :           0.00000000 Ha           0.00000000 eV
  | Entropy correction            :           0.00000000 Ha           0.00000000 eV
  | ---------------------------
  | Total energy                  :        -323.77051147 Ha       -8810.24387735 eV
  | Total energy, T -> 0          :        -323.77051147 Ha       -8810.24387735 eV  <-- do not rely on this value for anything but (periodic) metals
  | Electronic free energy        :        -323.77051147 Ha       -8810.24387735 eV

  Derived energy quantities:
  | Kinetic energy                :         320.47917240 Ha        8720.68198444 eV
  | Electrostatic energy          :        -602.46457337 Ha      -16393.89515372 eV
  | Energy correction for multipole
  | error in Hartree potential    :           0.00000000 Ha           0.00000000 eV
  | Sum of eigenvalues per atom                           :        -395.27967836 eV
  | Total energy (T->0) per atom                          :        -677.71106749 eV  <-- do not rely on this value for anything but (periodic) metals
  | Electronic free energy per atom                       :        -677.71106749 eV
  Initialize hartree_potential_storage
  Max. number of atoms included in rho_multipole:           13

  End scf initialization - timings             :  max(cpu_time)    wall_clock(cpu1)
  | Time for scf. initialization               :        1.140 s           1.143 s
  | Boundary condition initialization          :        0.000 s           0.000 s
  | Integration                                :        0.699 s           0.700 s
  | Solution of K.-S. eqns.                    :        0.004 s           0.004 s
  | Grid partitioning                          :        0.111 s           0.111 s
  | Preloading free-atom quantities on grid    :        0.002 s           0.003 s
  | Free-atom superposition energy             :        0.084 s           0.084 s
  | Total energy evaluation                    :        0.000 s           0.001 s

  Partial memory accounting:
  | Current value for overall tracked memory usage on task 0  :           0.165 MB
  | Peak value for overall tracked memory usage on task 0     :           0.676 MB after allocating wave
  | Largest tracked array allocation on task 0 so far         :           0.131 MB  when allocating H_times_psi
  Note:  These values currently only include a subset of arrays which are explicitly tracked.
  The "true" memory usage will be greater.
------------------------------------------------------------

------------------------------------------------------------
          Begin self-consistency iteration #    1

  Date     :  20200815, Time     :  003220.770
------------------------------------------------------------
  Evaluating new KS density.
  Integration grid: deviation in total charge (<rho> - N_e) =  -2.131628E-14
  Pulay mixing of updated and previous charge densities.

  Evaluating partitioned Hartree potential by multipole expansion.
  | Analytical far-field extrapolation by fixed multipoles:
  | Hartree multipole sum: apparent total charge =  -0.136879E-03
  Summing up the Hartree potential.
  Time summed over all CPUs for potential: real work        0.281 s, elapsed        0.281 s
  | RMS charge density error from multipole expansion :   0.587108E-02

  Integrating Hamiltonian matrix: batch-based integration.
  Time summed over all CPUs for integration: real work        0.489 s, elapsed        0.489 s

  Updating Kohn-Sham eigenvalues and eigenvectors using ELSI and the ELPA eigensolver.
  Finished Cholesky decomposition
  | Time :     0.000 s
  Finished transformation to standard eigenproblem
  | Time :     0.000 s
  Starting LAPACK eigensolver
  Finished solving standard eigenproblem
  | Time :     0.001 s
  Finished back-transformation of eigenvectors
  | Time :     0.000 s

  Obtaining occupation numbers and chemical potential using ELSI.
  | Chemical potential (Fermi level):    -7.73802434eV
  Writing Kohn-Sham eigenvalues.

  State    Occupation    Eigenvalue [Ha]    Eigenvalue [eV]
      1       2.00000         -18.901487         -514.33564
      2       2.00000         -18.838089         -512.61047
      3       2.00000         -14.094774         -383.53832
      4       2.00000         -10.114475         -275.22886
      5       2.00000         -10.062135         -273.80462
      6       2.00000         -10.030772         -272.95119
      7       2.00000          -1.136245          -30.91879
      8       2.00000          -1.030064          -28.02946
      9       2.00000          -0.920927          -25.05971
     10       2.00000          -0.792127          -21.55486
     11       2.00000          -0.711139          -19.35108
     12       2.00000          -0.634917          -17.27696
     13       2.00000          -0.563087          -15.32237
     14       2.00000          -0.538415          -14.65102
     15       2.00000          -0.523489          -14.24485
     16       2.00000          -0.507893          -13.82048
     17       2.00000          -0.492724          -13.40771
     18       2.00000          -0.474182          -12.90315
     19       2.00000          -0.464150          -12.63015
     20       2.00000          -0.432890          -11.77952
     21       2.00000          -0.418917          -11.39930
     22       2.00000          -0.366083           -9.96163
     23       2.00000          -0.334581           -9.10441
     24       2.00000          -0.311546           -8.47761
     25       0.00000          -0.116023           -3.15716
     26       0.00000          -0.032186           -0.87583
     27       0.00000          -0.002581           -0.07024
     28       0.00000           0.017315            0.47117
     29       0.00000           0.023247            0.63257
     30       0.00000           0.047932            1.30430
     31       0.00000           0.058736            1.59828
     32       0.00000           0.079979            2.17635
     33       0.00000           0.090728            2.46883
     34       0.00000           0.099026            2.69463
     35       0.00000           0.121485            3.30579
     36       0.00000           0.162933            4.43363
     37       0.00000           0.179211            4.87659
     38       0.00000           0.230048            6.25993
     39       0.00000           0.238801            6.49812
     40       0.00000           0.265241            7.21758
     41       0.00000           0.289038            7.86513
     42       0.00000           0.311605            8.47919
     43       0.00000           0.323887            8.81341
     44       0.00000           0.338857            9.22076
     45       0.00000           0.367603           10.00300
     46       0.00000           0.387720           10.55039
     47       0.00000           0.421373           11.46614
     48       0.00000           0.429208           11.67935
     49       0.00000           0.483251           13.14992
     50       0.00000           0.490774           13.35463
     51       0.00000           0.556663           15.14756
     52       0.00000           0.577014           15.70135
     53       0.00000           0.631229           17.17661

  Highest occupied state (VBM) at     -8.47761129 eV
  | Occupation number:      2.00000000

  Lowest unoccupied state (CBM) at    -3.15715674 eV
  | Occupation number:      0.00000000

  Overall HOMO-LUMO gap:      5.32045455 eV.

  Total energy components:
  | Sum of eigenvalues            :        -185.39021078 Ha       -5044.72430800 eV
  | XC energy correction          :         -42.11464822 Ha       -1145.99788572 eV
  | XC potential correction       :          54.14363213 Ha        1473.32319218 eV
  | Free-atom electrostatic energy:        -146.85899706 Ha       -3996.23663615 eV
  | Hartree energy correction     :          -3.36818585 Ha         -91.65300012 eV
  | vdW energy correction         :           0.00000000 Ha           0.00000000 eV
  | Entropy correction            :           0.00000000 Ha           0.00000000 eV
  | ---------------------------
  | Total energy                  :        -323.58840976 Ha       -8805.28863780 eV
  | Total energy, T -> 0          :        -323.58840976 Ha       -8805.28863780 eV  <-- do not rely on this value for anything but (periodic) metals
  | Electronic free energy        :        -323.58840976 Ha       -8805.28863780 eV

  Derived energy quantities:
  | Kinetic energy                :         322.27406821 Ha        8769.52358443 eV
  | Electrostatic energy          :        -603.74782975 Ha      -16428.81433650 eV
  | Energy correction for multipole
  | error in Hartree potential    :           0.01206841 Ha           0.32839803 eV
  | Sum of eigenvalues per atom                           :        -388.05571600 eV
  | Total energy (T->0) per atom                          :        -677.32989522 eV  <-- do not rely on this value for anything but (periodic) metals
  | Electronic free energy per atom                       :        -677.32989522 eV

  Self-consistency convergence accuracy:
  | Change of charge density      :  0.5829E+00
  | Change of sum of eigenvalues  :  0.9391E+02 eV
  | Change of total energy        :  0.4955E+01 eV

  End self-consistency iteration #     1       :  max(cpu_time)    wall_clock(cpu1)
  | Time for this iteration                    :        1.176 s           1.177 s
  | Charge density update                      :        0.389 s           0.389 s
  | Density mixing                             :        0.005 s           0.005 s
  | Hartree multipole update                   :        0.009 s           0.009 s
  | Hartree multipole summation                :        0.282 s           0.282 s
  | Integration                                :        0.489 s           0.490 s
  | Solution of K.-S. eqns.                    :        0.002 s           0.002 s
  | Total energy evaluation                    :        0.000 s           0.000 s

  Partial memory accounting:
  | Current value for overall tracked memory usage on task 0  :           0.165 MB
  | Peak value for overall tracked memory usage on task 0     :           0.691 MB after allocating gradient_basis_wave
  | Largest tracked array allocation on task 0 so far         :           0.394 MB  when allocating gradient_basis_wave
  Note:  These values currently only include a subset of arrays which are explicitly tracked.
  The "true" memory usage will be greater.
------------------------------------------------------------

------------------------------------------------------------
          Begin self-consistency iteration #    2

  Date     :  20200815, Time     :  003221.948
------------------------------------------------------------
  Evaluating new KS density.
  Integration grid: deviation in total charge (<rho> - N_e) =   1.421085E-14
  Pulay mixing of updated and previous charge densities.

  Evaluating partitioned Hartree potential by multipole expansion.
  | Analytical far-field extrapolation by fixed multipoles:
  | Hartree multipole sum: apparent total charge =  -0.280165E-03
  Summing up the Hartree potential.
  Time summed over all CPUs for potential: real work        0.281 s, elapsed        0.281 s
  | RMS charge density error from multipole expansion :   0.140501E-01

  Integrating Hamiltonian matrix: batch-based integration.
  Time summed over all CPUs for integration: real work        0.488 s, elapsed        0.488 s

  Updating Kohn-Sham eigenvalues and eigenvectors using ELSI and the ELPA eigensolver.
  Finished Cholesky decomposition
  | Time :     0.000 s
  Finished transformation to standard eigenproblem
  | Time :     0.000 s
  Starting LAPACK eigensolver
  Finished solving standard eigenproblem
  | Time :     0.002 s
  Finished back-transformation of eigenvectors
  | Time :     0.000 s

  Obtaining occupation numbers and chemical potential using ELSI.
  | Chemical potential (Fermi level):    -2.27686736eV
  Highest occupied state (VBM) at     -6.34676886 eV
  | Occupation number:      2.00000000

  Lowest unoccupied state (CBM) at    -1.88590532 eV
  | Occupation number:      0.00000000

  Overall HOMO-LUMO gap:      4.46086354 eV.

  Checking to see if s.c.f. parameters should be adjusted.

  Total energy components:
  | Sum of eigenvalues            :        -181.73115987 Ha       -4945.15646679 eV
  | XC energy correction          :         -42.47940489 Ha       -1155.92341987 eV
  | XC potential correction       :          54.61654425 Ha        1486.19178559 eV
  | Free-atom electrostatic energy:        -146.85899706 Ha       -3996.23663615 eV
  | Hartree energy correction     :          -7.05641866 Ha        -192.01492141 eV
  | vdW energy correction         :           0.00000000 Ha           0.00000000 eV
  | Entropy correction            :           0.00000000 Ha           0.00000000 eV
  | ---------------------------
  | Total energy                  :        -323.50943623 Ha       -8803.13965862 eV
  | Total energy, T -> 0          :        -323.50943623 Ha       -8803.13965862 eV  <-- do not rely on this value for anything but (periodic) metals
  | Electronic free energy        :        -323.50943623 Ha       -8803.13965862 eV

  Derived energy quantities:
  | Kinetic energy                :         323.61258303 Ha        8805.94642580 eV
  | Electrostatic energy          :        -604.64261436 Ha      -16453.16266455 eV
  | Energy correction for multipole
  | error in Hartree potential    :           0.02692176 Ha           0.73257826 eV
  | Sum of eigenvalues per atom                           :        -380.39665129 eV
  | Total energy (T->0) per atom                          :        -677.16458912 eV  <-- do not rely on this value for anything but (periodic) metals
  | Electronic free energy per atom                       :        -677.16458912 eV

  Self-consistency convergence accuracy:
  | Change of charge density      :  0.3638E+00
  | Change of sum of eigenvalues  :  0.9957E+02 eV
  | Change of total energy        :  0.2149E+01 eV

  End self-consistency iteration #     2       :  max(cpu_time)    wall_clock(cpu1)
  | Time for this iteration                    :        1.168 s           1.168 s
  | Charge density update                      :        0.381 s           0.382 s
  | Density mixing                             :        0.007 s           0.006 s
  | Hartree multipole update                   :        0.009 s           0.009 s
  | Hartree multipole summation                :        0.281 s           0.281 s
  | Integration                                :        0.488 s           0.488 s
  | Solution of K.-S. eqns.                    :        0.002 s           0.002 s
  | Total energy evaluation                    :        0.000 s           0.000 s

  Partial memory accounting:
  | Current value for overall tracked memory usage on task 0  :           0.166 MB
  | Peak value for overall tracked memory usage on task 0     :           0.691 MB after allocating gradient_basis_wave
  | Largest tracked array allocation on task 0 so far         :           0.394 MB  when allocating gradient_basis_wave
  Note:  These values currently only include a subset of arrays which are explicitly tracked.
  The "true" memory usage will be greater.
------------------------------------------------------------

------------------------------------------------------------
          Begin self-consistency iteration #    3

  Date     :  20200815, Time     :  003223.117
------------------------------------------------------------
  Evaluating new KS density.
  Integration grid: deviation in total charge (<rho> - N_e) =   8.526513E-14
  Pulay mixing of updated and previous charge densities.

  Evaluating partitioned Hartree potential by multipole expansion.
  | Analytical far-field extrapolation by fixed multipoles:
  | Hartree multipole sum: apparent total charge =  -0.381720E-03
  Summing up the Hartree potential.
  Time summed over all CPUs for potential: real work        0.281 s, elapsed        0.281 s
  | RMS charge density error from multipole expansion :   0.223552E-01

  Integrating Hamiltonian matrix: batch-based integration.
  Time summed over all CPUs for integration: real work        0.488 s, elapsed        0.488 s

  Updating Kohn-Sham eigenvalues and eigenvectors using ELSI and the ELPA eigensolver.
  Finished Cholesky decomposition
  | Time :     0.000 s
  Finished transformation to standard eigenproblem
  | Time :     0.000 s
  Starting LAPACK eigensolver
  Finished solving standard eigenproblem
  | Time :     0.001 s
  Finished back-transformation of eigenvectors
  | Time :     0.000 s

  Obtaining occupation numbers and chemical potential using ELSI.
  | Chemical potential (Fermi level):    -1.57513035eV
  Highest occupied state (VBM) at     -5.67358807 eV
  | Occupation number:      2.00000000

  Lowest unoccupied state (CBM) at    -1.20245199 eV
  | Occupation number:      0.00000000

  Overall HOMO-LUMO gap:      4.47113608 eV.

  Total energy components:
  | Sum of eigenvalues            :        -180.46131959 Ha       -4910.60235481 eV
  | XC energy correction          :         -42.62761365 Ha       -1159.95638522 eV
  | XC potential correction       :          54.80535712 Ha        1491.32964535 eV
  | Free-atom electrostatic energy:        -146.85899706 Ha       -3996.23663615 eV
  | Hartree energy correction     :          -8.35451114 Ha        -227.33781507 eV
  | vdW energy correction         :           0.00000000 Ha           0.00000000 eV
  | Entropy correction            :           0.00000000 Ha           0.00000000 eV
  | ---------------------------
  | Total energy                  :        -323.49708431 Ha       -8802.80354590 eV
  | Total energy, T -> 0          :        -323.49708431 Ha       -8802.80354590 eV  <-- do not rely on this value for anything but (periodic) metals
  | Electronic free energy        :        -323.49708431 Ha       -8802.80354590 eV

  Derived energy quantities:
  | Kinetic energy                :         323.13574987 Ha        8792.97113532 eV
  | Electrostatic energy          :        -604.00522054 Ha      -16435.81829601 eV
  | Energy correction for multipole
  | error in Hartree potential    :           0.03861052 Ha           1.05064560 eV
  | Sum of eigenvalues per atom                           :        -377.73864268 eV
  | Total energy (T->0) per atom                          :        -677.13873430 eV  <-- do not rely on this value for anything but (periodic) metals
  | Electronic free energy per atom                       :        -677.13873430 eV

  Self-consistency convergence accuracy:
  | Change of charge density      :  0.2019E+00
  | Change of sum of eigenvalues  :  0.3455E+02 eV
  | Change of total energy        :  0.3361E+00 eV

  End self-consistency iteration #     3       :  max(cpu_time)    wall_clock(cpu1)
  | Time for this iteration                    :        1.169 s           1.170 s
  | Charge density update                      :        0.381 s           0.382 s
  | Density mixing                             :        0.008 s           0.008 s
  | Hartree multipole update                   :        0.008 s           0.008 s
  | Hartree multipole summation                :        0.281 s           0.281 s
  | Integration                                :        0.488 s           0.489 s
  | Solution of K.-S. eqns.                    :        0.002 s           0.002 s
  | Total energy evaluation                    :        0.000 s           0.000 s

  Partial memory accounting:
  | Current value for overall tracked memory usage on task 0  :           0.166 MB
  | Peak value for overall tracked memory usage on task 0     :           0.692 MB after allocating gradient_basis_wave
  | Largest tracked array allocation on task 0 so far         :           0.394 MB  when allocating gradient_basis_wave
  Note:  These values currently only include a subset of arrays which are explicitly tracked.
  The "true" memory usage will be greater.
------------------------------------------------------------

------------------------------------------------------------
          Begin self-consistency iteration #    4

  Date     :  20200815, Time     :  003224.290
------------------------------------------------------------
  Evaluating new KS density.
  Integration grid: deviation in total charge (<rho> - N_e) =   2.131628E-14
  Pulay mixing of updated and previous charge densities.

  Evaluating partitioned Hartree potential by multipole expansion.
  | Analytical far-field extrapolation by fixed multipoles:
  | Hartree multipole sum: apparent total charge =  -0.413441E-03
  Summing up the Hartree potential.
  Time summed over all CPUs for potential: real work        0.281 s, elapsed        0.281 s
  | RMS charge density error from multipole expansion :   0.255648E-01

  Integrating Hamiltonian matrix: batch-based integration.
  Time summed over all CPUs for integration: real work        0.487 s, elapsed        0.487 s

  Updating Kohn-Sham eigenvalues and eigenvectors using ELSI and the ELPA eigensolver.
  Finished Cholesky decomposition
  | Time :     0.000 s
  Finished transformation to standard eigenproblem
  | Time :     0.000 s
  Starting LAPACK eigensolver
  Finished solving standard eigenproblem
  | Time :     0.002 s
  Finished back-transformation of eigenvectors
  | Time :     0.000 s

  Obtaining occupation numbers and chemical potential using ELSI.
  | Chemical potential (Fermi level):    -1.49909547eV
  Highest occupied state (VBM) at     -5.50337069 eV
  | Occupation number:      2.00000000

  Lowest unoccupied state (CBM) at    -1.12494977 eV
  | Occupation number:      0.00000000

  Overall HOMO-LUMO gap:      4.37842092 eV.

  Total energy components:
  | Sum of eigenvalues            :        -180.30704683 Ha       -4906.40437934 eV
  | XC energy correction          :         -42.66447866 Ha       -1160.95953337 eV
  | XC potential correction       :          54.85188037 Ha        1492.59560730 eV
  | Free-atom electrostatic energy:        -146.85899706 Ha       -3996.23663615 eV
  | Hartree energy correction     :          -8.51767341 Ha        -231.77768624 eV
  | vdW energy correction         :           0.00000000 Ha           0.00000000 eV
  | Entropy correction            :           0.00000000 Ha           0.00000000 eV
  | ---------------------------
  | Total energy                  :        -323.49631559 Ha       -8802.78262779 eV
  | Total energy, T -> 0          :        -323.49631559 Ha       -8802.78262779 eV  <-- do not rely on this value for anything but (periodic) metals
  | Electronic free energy        :        -323.49631559 Ha       -8802.78262779 eV

  Derived energy quantities:
  | Kinetic energy                :         322.78970102 Ha        8783.55466705 eV
  | Electrostatic energy          :        -603.62153794 Ha      -16425.37776148 eV
  | Energy correction for multipole
  | error in Hartree potential    :           0.04274153 Ha           1.16305611 eV
  | Sum of eigenvalues per atom                           :        -377.41572149 eV
  | Total energy (T->0) per atom                          :        -677.13712521 eV  <-- do not rely on this value for anything but (periodic) metals
  | Electronic free energy per atom                       :        -677.13712521 eV

  Self-consistency convergence accuracy:
  | Change of charge density      :  0.5960E-01
  | Change of sum of eigenvalues  :  0.4198E+01 eV
  | Change of total energy        :  0.2092E-01 eV

  End self-consistency iteration #     4       :  max(cpu_time)    wall_clock(cpu1)
  | Time for this iteration                    :        1.170 s           1.170 s
  | Charge density update                      :        0.382 s           0.382 s
  | Density mixing                             :        0.009 s           0.009 s
  | Hartree multipole update                   :        0.008 s           0.009 s
  | Hartree multipole summation                :        0.281 s           0.281 s
  | Integration                                :        0.487 s           0.487 s
  | Solution of K.-S. eqns.                    :        0.002 s           0.002 s
  | Total energy evaluation                    :        0.000 s           0.000 s

  Partial memory accounting:
  | Current value for overall tracked memory usage on task 0  :           0.166 MB
  | Peak value for overall tracked memory usage on task 0     :           0.692 MB after allocating gradient_basis_wave
  | Largest tracked array allocation on task 0 so far         :           0.394 MB  when allocating gradient_basis_wave
  Note:  These values currently only include a subset of arrays which are explicitly tracked.
  The "true" memory usage will be greater.
------------------------------------------------------------

------------------------------------------------------------
          Begin self-consistency iteration #    5

  Date     :  20200815, Time     :  003225.463
------------------------------------------------------------
  Evaluating new KS density.
  Integration grid: deviation in total charge (<rho> - N_e) =  -1.421085E-14
  Pulay mixing of updated and previous charge densities.

  Evaluating partitioned Hartree potential by multipole expansion.
  | Analytical far-field extrapolation by fixed multipoles:
  | Hartree multipole sum: apparent total charge =  -0.407157E-03
  Summing up the Hartree potential.
  Time summed over all CPUs for potential: real work        0.281 s, elapsed        0.281 s
  | RMS charge density error from multipole expansion :   0.252967E-01

  Integrating Hamiltonian matrix: batch-based integration.
  Time summed over all CPUs for integration: real work        0.488 s, elapsed        0.488 s

  Updating Kohn-Sham eigenvalues and eigenvectors using ELSI and the ELPA eigensolver.
  Finished Cholesky decomposition
  | Time :     0.000 s
  Finished transformation to standard eigenproblem
  | Time :     0.000 s
  Starting LAPACK eigensolver
  Finished solving standard eigenproblem
  | Time :     0.002 s
  Finished back-transformation of eigenvectors
  | Time :     0.000 s

  Obtaining occupation numbers and chemical potential using ELSI.
  | Chemical potential (Fermi level):    -1.56246998eV
  Highest occupied state (VBM) at     -5.58554601 eV
  | Occupation number:      2.00000000

  Lowest unoccupied state (CBM) at    -1.20460508 eV
  | Occupation number:      0.00000000

  Overall HOMO-LUMO gap:      4.38094093 eV.

  Total energy components:
  | Sum of eigenvalues            :        -180.49460893 Ha       -4911.50820366 eV
  | XC energy correction          :         -42.64157312 Ha       -1160.33624197 eV
  | XC potential correction       :          54.82217556 Ha        1491.78729835 eV
  | Free-atom electrostatic energy:        -146.85899706 Ha       -3996.23663615 eV
  | Hartree energy correction     :          -8.32301477 Ha        -226.48075519 eV
  | vdW energy correction         :           0.00000000 Ha           0.00000000 eV
  | Entropy correction            :           0.00000000 Ha           0.00000000 eV
  | ---------------------------
  | Total energy                  :        -323.49601832 Ha       -8802.77453861 eV
  | Total energy, T -> 0          :        -323.49601832 Ha       -8802.77453861 eV  <-- do not rely on this value for anything but (periodic) metals
  | Electronic free energy        :        -323.49601832 Ha       -8802.77453861 eV

  Derived energy quantities:
  | Kinetic energy                :         322.69027514 Ha        8780.84915113 eV
  | Electrostatic energy          :        -603.54472033 Ha      -16423.28744777 eV
  | Energy correction for multipole
  | error in Hartree potential    :           0.04211911 Ha           1.14611932 eV
  | Sum of eigenvalues per atom                           :        -377.80832336 eV
  | Total energy (T->0) per atom                          :        -677.13650297 eV  <-- do not rely on this value for anything but (periodic) metals
  | Electronic free energy per atom                       :        -677.13650297 eV

  Self-consistency convergence accuracy:
  | Change of charge density      :  0.2024E-01
  | Change of sum of eigenvalues  : -0.5104E+01 eV
  | Change of total energy        :  0.8089E-02 eV

  End self-consistency iteration #     5       :  max(cpu_time)    wall_clock(cpu1)
  | Time for this iteration                    :        1.173 s           1.173 s
  | Charge density update                      :        0.381 s           0.381 s
  | Density mixing                             :        0.011 s           0.011 s
  | Hartree multipole update                   :        0.009 s           0.009 s
  | Hartree multipole summation                :        0.281 s           0.281 s
  | Integration                                :        0.488 s           0.489 s
  | Solution of K.-S. eqns.                    :        0.002 s           0.002 s
  | Total energy evaluation                    :        0.000 s           0.000 s

  Partial memory accounting:
  | Current value for overall tracked memory usage on task 0  :           0.166 MB
  | Peak value for overall tracked memory usage on task 0     :           0.692 MB after allocating gradient_basis_wave
  | Largest tracked array allocation on task 0 so far         :           0.394 MB  when allocating gradient_basis_wave
  Note:  These values currently only include a subset of arrays which are explicitly tracked.
  The "true" memory usage will be greater.
------------------------------------------------------------

------------------------------------------------------------
          Begin self-consistency iteration #    6

  Date     :  20200815, Time     :  003226.637
------------------------------------------------------------
  Evaluating new KS density.
  Integration grid: deviation in total charge (<rho> - N_e) =  -3.552714E-14
  Pulay mixing of updated and previous charge densities.

  Evaluating partitioned Hartree potential by multipole expansion.
  | Analytical far-field extrapolation by fixed multipoles:
  | Hartree multipole sum: apparent total charge =  -0.409883E-03
  Summing up the Hartree potential.
  Time summed over all CPUs for potential: real work        0.281 s, elapsed        0.281 s
  | RMS charge density error from multipole expansion :   0.256602E-01

  Integrating Hamiltonian matrix: batch-based integration.
  Time summed over all CPUs for integration: real work        0.489 s, elapsed        0.489 s

  Updating Kohn-Sham eigenvalues and eigenvectors using ELSI and the ELPA eigensolver.
  Finished Cholesky decomposition
  | Time :     0.000 s
  Finished transformation to standard eigenproblem
  | Time :     0.000 s
  Starting LAPACK eigensolver
  Finished solving standard eigenproblem
  | Time :     0.001 s
  Finished back-transformation of eigenvectors
  | Time :     0.000 s

  Obtaining occupation numbers and chemical potential using ELSI.
  | Chemical potential (Fermi level):    -1.57014418eV
  Highest occupied state (VBM) at     -5.56186604 eV
  | Occupation number:      2.00000000

  Lowest unoccupied state (CBM) at    -1.22213941 eV
  | Occupation number:      0.00000000

  Overall HOMO-LUMO gap:      4.33972663 eV.

  Total energy components:
  | Sum of eigenvalues            :        -180.51239944 Ha       -4911.99230831 eV
  | XC energy correction          :         -42.63824921 Ha       -1160.24579365 eV
  | XC potential correction       :          54.81784847 Ha        1491.66955213 eV
  | Free-atom electrostatic energy:        -146.85899706 Ha       -3996.23663615 eV
  | Hartree energy correction     :          -8.30416910 Ha        -225.96793840 eV
  | vdW energy correction         :           0.00000000 Ha           0.00000000 eV
  | Entropy correction            :           0.00000000 Ha           0.00000000 eV
  | ---------------------------
  | Total energy                  :        -323.49596634 Ha       -8802.77312438 eV
  | Total energy, T -> 0          :        -323.49596634 Ha       -8802.77312438 eV  <-- do not rely on this value for anything but (periodic) metals
  | Electronic free energy        :        -323.49596634 Ha       -8802.77312438 eV

  Derived energy quantities:
  | Kinetic energy                :         322.60793598 Ha        8778.60858872 eV
  | Electrostatic energy          :        -603.46565311 Ha      -16421.13591944 eV
  | Energy correction for multipole
  | error in Hartree potential    :           0.04242678 Ha           1.15449148 eV
  | Sum of eigenvalues per atom                           :        -377.84556218 eV
  | Total energy (T->0) per atom                          :        -677.13639418 eV  <-- do not rely on this value for anything but (periodic) metals
  | Electronic free energy per atom                       :        -677.13639418 eV

  Self-consistency convergence accuracy:
  | Change of charge density      :  0.1020E-01
  | Change of sum of eigenvalues  : -0.4841E+00 eV
  | Change of total energy        :  0.1414E-02 eV

  End self-consistency iteration #     6       :  max(cpu_time)    wall_clock(cpu1)
  | Time for this iteration                    :        1.174 s           1.175 s
  | Charge density update                      :        0.381 s           0.381 s
  | Density mixing                             :        0.012 s           0.012 s
  | Hartree multipole update                   :        0.009 s           0.009 s
  | Hartree multipole summation                :        0.281 s           0.281 s
  | Integration                                :        0.488 s           0.489 s
  | Solution of K.-S. eqns.                    :        0.002 s           0.002 s
  | Total energy evaluation                    :        0.000 s           0.000 s

  Partial memory accounting:
  | Current value for overall tracked memory usage on task 0  :           0.166 MB
  | Peak value for overall tracked memory usage on task 0     :           0.692 MB after allocating gradient_basis_wave
  | Largest tracked array allocation on task 0 so far         :           0.394 MB  when allocating gradient_basis_wave
  Note:  These values currently only include a subset of arrays which are explicitly tracked.
  The "true" memory usage will be greater.
------------------------------------------------------------

------------------------------------------------------------
          Begin self-consistency iteration #    7

  Date     :  20200815, Time     :  003227.815
------------------------------------------------------------
  Evaluating new KS density.
  Integration grid: deviation in total charge (<rho> - N_e) =  -6.394885E-14
  Pulay mixing of updated and previous charge densities.

  Evaluating partitioned Hartree potential by multipole expansion.
  | Analytical far-field extrapolation by fixed multipoles:
  | Hartree multipole sum: apparent total charge =  -0.411188E-03
  Summing up the Hartree potential.
  Time summed over all CPUs for potential: real work        0.281 s, elapsed        0.281 s
  | RMS charge density error from multipole expansion :   0.258052E-01

  Integrating Hamiltonian matrix: batch-based integration.
  Time summed over all CPUs for integration: real work        0.493 s, elapsed        0.493 s

  Updating Kohn-Sham eigenvalues and eigenvectors using ELSI and the ELPA eigensolver.
  Finished Cholesky decomposition
  | Time :     0.000 s
  Finished transformation to standard eigenproblem
  | Time :     0.000 s
  Starting LAPACK eigensolver
  Finished solving standard eigenproblem
  | Time :     0.001 s
  Finished back-transformation of eigenvectors
  | Time :     0.000 s

[...]
  |   Hirshfeld dipole moment :      0.06471811
  |   Hirshfeld second moments:      0.00116162      -0.02154434      -0.01771191
  |                                 -0.02154434      -0.00844868       0.01102329
  |                                 -0.01771191       0.01102329      -0.01917898
  ----------------------------------------------------------------------
  | Atom    12: O
  |   Hirshfeld charge        :     -0.14590730
  |   Free atom volume        :     23.61338643
  |   Hirshfeld volume        :     20.87471151
  |   Hirshfeld dipole vector :      0.02282977       0.00026905       0.03562829
  |   Hirshfeld dipole moment :      0.04231602
  |   Hirshfeld second moments:      0.05017908      -0.00974288      -0.00526164
  |                                 -0.00974288       0.10826344      -0.00242291
  |                                 -0.00526164      -0.00242291       0.01951860
  ----------------------------------------------------------------------
  | Atom    13: H
  |   Hirshfeld charge        :      0.17652849
  |   Free atom volume        :      9.95071624
  |   Hirshfeld volume        :      6.33608560
  |   Hirshfeld dipole vector :      0.03373604      -0.11302009       0.02128385
  |   Hirshfeld dipole moment :      0.11985267
  |   Hirshfeld second moments:      0.11714845       0.00132537      -0.01181495
  |                                  0.00132537       0.12460165       0.00189491
  |                                 -0.01181495       0.00189491       0.08708029
  ----------------------------------------------------------------------


  Total energy components:
  | Sum of eigenvalues            :        -180.50585426 Ha       -4911.81420475 eV
  | XC energy correction          :         -42.63566537 Ha       -1160.17548383 eV
  | XC potential correction       :          54.81458195 Ha        1491.58066558 eV
  | Free-atom electrostatic energy:        -146.85899706 Ha       -3996.23663615 eV
  | Hartree energy correction     :          -8.31000962 Ha        -226.12686690 eV
  | vdW energy correction         :          -0.00319828 Ha          -0.08702950 eV
  | Entropy correction            :           0.00000000 Ha           0.00000000 eV
  | ---------------------------
  | Total energy                  :        -323.49914263 Ha       -8802.85955555 eV
  | Total energy, T -> 0          :        -323.49914263 Ha       -8802.85955555 eV  <-- do not rely on this value for anything but (periodic) metals
  | Electronic free energy        :        -323.49914263 Ha       -8802.85955555 eV

  Derived energy quantities:
  | Kinetic energy                :         322.56823555 Ha        8777.52828493 eV
  | Electrostatic energy          :        -603.42851453 Ha      -16420.12532715 eV
  | Energy correction for multipole
  | error in Hartree potential    :           0.04254565 Ha           1.15772592 eV
  | Sum of eigenvalues per atom                           :        -377.83186190 eV
  | Total energy (T->0) per atom                          :        -677.14304273 eV  <-- do not rely on this value for anything but (periodic) metals
  | Electronic free energy per atom                       :        -677.14304273 eV

  atomic forces [eV/Ang]:
  -----------------------
  atom #    1
   Hellmann-Feynman              : -0.372206E+00  0.922992E+00  0.783681E+00
   Ionic forces                  :  0.000000E+00  0.000000E+00  0.000000E+00
   Multipole                     :  0.416607E-01  0.414396E+00 -0.270963E+00
   Pulay + GGA                   : -0.745680E+00 -0.779016E+00 -0.113601E+01
   Van der Waals                 :  0.233609E-02  0.232097E-02 -0.174593E-02
   ----------------------------------------------------------------
   Total forces(   1)            : -0.107389E+01  0.560693E+00 -0.625042E+00
  atom #    2
   Hellmann-Feynman              :  0.241381E+00 -0.945119E-01 -0.753095E-01
   Ionic forces                  :  0.000000E+00  0.000000E+00  0.000000E+00
   Multipole                     :  0.183116E+00  0.259809E-01 -0.164035E-01
   Pulay + GGA                   : -0.144606E+00  0.286710E-03  0.242286E-01
   Van der Waals                 :  0.398956E-02 -0.609557E-02 -0.563972E-02
   ----------------------------------------------------------------
   Total forces(   2)            :  0.283880E+00 -0.743399E-01 -0.731241E-01
  atom #    3
   Hellmann-Feynman              :  0.329529E+01 -0.107784E+02 -0.429096E+01
   Ionic forces                  :  0.000000E+00  0.000000E+00  0.000000E+00
   Multipole                     : -0.165054E+00  0.637371E-01 -0.878988E+00
   Pulay + GGA                   : -0.251186E+01  0.995666E+01  0.574854E+01
   Van der Waals                 :  0.319890E-02 -0.836229E-02 -0.624584E-02
   ----------------------------------------------------------------
   Total forces(   3)            :  0.621574E+00 -0.766369E+00  0.572351E+00
  atom #    4
   Hellmann-Feynman              : -0.130805E+00  0.259515E+00 -0.791472E-01
   Ionic forces                  :  0.000000E+00  0.000000E+00  0.000000E+00
   Multipole                     : -0.900892E-01  0.322164E-01 -0.500683E-01
   Pulay + GGA                   :  0.221691E+00 -0.124047E+00 -0.463359E-01
   Van der Waals                 : -0.117205E-02  0.496532E-02 -0.120668E-01
   ----------------------------------------------------------------
   Total forces(   4)            : -0.375308E-03  0.172649E+00 -0.187618E+00
  atom #    5
   Hellmann-Feynman              : -0.129922E+00  0.329539E+00 -0.298609E-02
   Ionic forces                  :  0.000000E+00  0.000000E+00  0.000000E+00
   Multipole                     : -0.168725E-02  0.646471E-01 -0.916639E-01
   Pulay + GGA                   : -0.508284E-01 -0.218275E+00  0.474968E-01
   Van der Waals                 : -0.287894E-02 -0.666392E-02 -0.595142E-02
   ----------------------------------------------------------------
   Total forces(   5)            : -0.185317E+00  0.169247E+00 -0.531046E-01
  atom #    6
   Hellmann-Feynman              :  0.450910E+00 -0.914780E+00  0.718089E+00
   Ionic forces                  :  0.000000E+00  0.000000E+00  0.000000E+00
   Multipole                     : -0.121449E+00  0.634421E+00  0.190673E+00
   Pulay + GGA                   : -0.559294E-02 -0.105037E+00 -0.469544E+00
   Van der Waals                 : -0.219113E-02  0.985356E-02  0.807844E-02
   ----------------------------------------------------------------
   Total forces(   6)            :  0.321677E+00 -0.375544E+00  0.447296E+00
  atom #    7
   Hellmann-Feynman              : -0.223380E+00 -0.583273E-01 -0.570422E-01
   Ionic forces                  :  0.000000E+00  0.000000E+00  0.000000E+00
   Multipole                     : -0.122714E+00  0.481310E-01  0.343844E-01
   Pulay + GGA                   :  0.114720E+00  0.146374E-01  0.248226E-01
   Van der Waals                 : -0.125360E-02  0.512740E-02  0.739197E-02
   ----------------------------------------------------------------
   Total forces(   7)            : -0.232628E+00  0.956851E-02  0.955677E-02
  atom #    8
   Hellmann-Feynman              :  0.410033E-01  0.634150E-01  0.260299E+00
   Ionic forces                  :  0.000000E+00  0.000000E+00  0.000000E+00
   Multipole                     :  0.162589E-01  0.615595E-01  0.124172E+00
   Pulay + GGA                   : -0.470576E-01 -0.398481E-01 -0.100569E+00
   Van der Waals                 : -0.290708E-02  0.113887E-01  0.631416E-03
   ----------------------------------------------------------------
   Total forces(   8)            :  0.729755E-02  0.965151E-01  0.284533E+00
  atom #    9
   Hellmann-Feynman              :  0.111798E+00  0.476034E-01 -0.178924E+00
   Ionic forces                  :  0.000000E+00  0.000000E+00  0.000000E+00
   Multipole                     :  0.197894E-01  0.130086E+00 -0.794910E-02
   Pulay + GGA                   : -0.468018E-01 -0.768048E-01  0.626443E-01
   Van der Waals                 : -0.341082E-02  0.597515E-02  0.805197E-02
   ----------------------------------------------------------------
   Total forces(   9)            :  0.813744E-01  0.106860E+00 -0.116177E+00
  atom #   10
   Hellmann-Feynman              :  0.242129E+01  0.527137E+01  0.503156E+00
   Ionic forces                  :  0.000000E+00  0.000000E+00  0.000000E+00
   Multipole                     : -0.334456E-01 -0.263346E+00  0.304700E+00
   Pulay + GGA                   : -0.166125E+01 -0.274461E+01 -0.160177E+00
   Van der Waals                 :  0.581364E-02 -0.131938E-01  0.891394E-03
   ----------------------------------------------------------------
   Total forces(  10)            :  0.732408E+00  0.225022E+01  0.648571E+00
  atom #   11
   Hellmann-Feynman              :  0.414908E+01 -0.225680E+01  0.142264E+02
   Ionic forces                  :  0.000000E+00  0.000000E+00  0.000000E+00
   Multipole                     :  0.130943E+00 -0.634404E+00  0.791814E+00
   Pulay + GGA                   : -0.305436E+01  0.334080E+01 -0.135611E+02
   Van der Waals                 : -0.354554E-02 -0.116872E-01  0.238634E-02
   ----------------------------------------------------------------
   Total forces(  11)            :  0.122213E+01  0.437908E+00  0.145944E+01
  atom #   12
   Hellmann-Feynman              : -0.925801E+01  0.153681E+01 -0.134624E+02
   Ionic forces                  :  0.000000E+00  0.000000E+00  0.000000E+00
   Multipole                     : -0.979881E+00 -0.934913E+00 -0.624625E+00
   Pulay + GGA                   :  0.932199E+01 -0.233188E+01  0.115178E+02
   Van der Waals                 :  0.184966E-02  0.177818E-02  0.691415E-02
   ----------------------------------------------------------------
   Total forces(  12)            : -0.914048E+00 -0.172821E+01 -0.256229E+01
  atom #   13
   Hellmann-Feynman              : -0.789301E+00 -0.111811E+01  0.297673E+00
   Ionic forces                  :  0.000000E+00  0.000000E+00  0.000000E+00
   Multipole                     :  0.349748E-01 -0.791583E-01  0.451603E-01
   Pulay + GGA                   : -0.109754E+00  0.330638E+00 -0.145982E+00
   Van der Waals                 :  0.171313E-03  0.459352E-02 -0.269599E-02
   ----------------------------------------------------------------
   Total forces(  13)            : -0.863908E+00 -0.862033E+00  0.194155E+00

  Timings for VdW correction (Tkatchenko-Scheffler 2009 or later):
  | CPU time:        0.089 s, Wall clock time:        0.090 s.
  Removing unitary transformations (pure translations, rotations) from forces on atoms.
  Atomic forces before filtering:
  | Net force on center of mass :   0.172094E-03 -0.283018E-02 -0.144606E-02 eV/A
  | Net torque on center of mass:  -0.613792E-02  0.423486E-02 -0.116938E-02 eV
  Atomic forces after filtering:
  | Net force on center of mass :  -0.178406E-15  0.000000E+00 -0.892031E-16 eV/A
  | Net torque on center of mass:  -0.141613E-14  0.259623E-15  0.377634E-15 eV

  Energy and forces in a compact form:
  | Total energy uncorrected      :         -0.880285955554944E+04 eV
  | Total energy corrected        :         -0.880285955554944E+04 eV  <-- do not rely on this value for anything but (periodic) metals
  | Electronic free energy        :         -0.880285955554944E+04 eV
  Total atomic forces (unitary forces cleaned) [eV/Ang]:
  |   1         -0.107387872203067E+01          0.560953530293065E+00         -0.624837426385789E+00
  |   2          0.283890355547901E+00         -0.740229625285429E-01         -0.727118304403751E-01
  |   3          0.621852534359843E+00         -0.765941727411544E+00          0.572464643326621E+00
  |   4         -0.102679280298637E-03          0.173023779261291E+00         -0.187682439693901E+00
  |   5         -0.184985512832862E+00          0.169764422739379E+00         -0.528024389270012E-01
  |   6          0.321482797853216E+00         -0.375408560886256E+00          0.447578728251896E+00
  |   7         -0.232826164995034E+00          0.964474899075970E-02          0.963578893849531E-02
  |   8          0.690755727774303E-02          0.965287358921575E-01          0.284885589220781E+00
  |   9          0.812296750481710E-01          0.107082812261623E+00         -0.115703381435926E+00
  |  10          0.732343990050281E+00          0.225036289568530E+01          0.648525636286871E+00
  |  11          0.122185969223164E+01          0.437906500723578E+00          0.145941736746618E+01
  |  12         -0.913939407834229E+00         -0.172801730336630E+01         -0.256258259776341E+01
  |  13         -0.863834115395704E+00         -0.861876871654504E+00          0.193812361155567E+00

  ------------------------------------ 
  Start decomposition of the XC Energy 
  ------------------------------------ 
  X and C from original XC functional choice 
  Hartree-Fock Energy :          0.000000000 Ha              0.000000000 eV
  X Energy            :        -41.035814679 Ha          -1116.641331489 eV
  C Energy            :         -1.599850693 Ha            -43.534152344 eV
  Total XC Energy     :        -42.635665371 Ha          -1160.175483833 eV
  ------------------------------------ 
  LDA X and C from self-consistent density 
  X Energy LDA        :        -37.253784783 Ha          -1013.727061817 eV
  C Energy LDA        :         -3.138334526 Ha            -85.398427473 eV
  ------------------------------------ 
  End decomposition of the XC Energy 
  ------------------------------------ 

------------------------------------------------------------

------------------------------------------------------------------------------
  Final output of selected total energy values:

  The following output summarizes some interesting total energy values
  at the end of a run (AFTER all relaxation, molecular dynamics, etc.).

  | Total energy of the DFT / Hartree-Fock s.c.f. calculation      :          -8802.859555549 eV
  | Final zero-broadening corrected energy (caution - metals only) :          -8802.859555549 eV
  | For reference only, the value of 1 Hartree used in FHI-aims is :             27.211384500 eV

  Before relying on these values, please be sure to understand exactly which
  total energy value is referred to by a given number. Different objects may
  all carry the same name 'total energy'. Definitions:

  Total energy of the DFT / Hartree-Fock s.c.f. calculation:
  | Note that this energy does not include ANY quantities calculated after the
  | s.c.f. cycle, in particular not ANY RPA, MP2, etc. many-body perturbation terms.

  Final zero-broadening corrected energy:
  | For metallic systems only, a broadening of the occupation numbers at the Fermi
  | level can be extrapolated back to zero broadening by an electron-gas inspired
  | formula. For all systems that are not real metals, this value can be
  | meaningless and should be avoided.

------------------------------------------------------------------------------
  Methods described in the following list of references were used in this FHI-aims run.
  If you publish the results, please make sure to cite these reference if they apply.
  FHI-aims is an academic code, and for our developers (often, Ph.D. students
  and postdocs), scientific credit in the community is essential.
  Thank you for helping us!

  For any use of FHI-aims, please cite:

    Volker Blum, Ralf Gehrke, Felix Hanke, Paula Havu, Ville Havu,
    Xinguo Ren, Karsten Reuter, and Matthias Scheffler
    'Ab initio molecular simulations with numeric atom-centered orbitals'
    Computer Physics Communications 180, 2175-2196 (2009)
    http://dx.doi.org/10.1016/j.cpc.2009.06.022


  The scalable eigensolver library ELPA was used in your run.
  ELPA is essential especially for large systems on hundreds or thousands of CPUs.
  For ELPA, please cite:

    Andreas Marek, Volker Blum, Rainer Johanni, Ville Havu, Bruno Lang,
    Thomas Auckenthaler, Alexander Heinecke, Hans-Joachim Bungartz, and Hermann Lederer,
    'The ELPA Library - Scalable Parallel Eigenvalue Solutions
    for Electronic Structure Theory and Computational Science'
    The Journal of Physics: Condensed Matter 26, 213201 (2014).
    http://dx.doi.org/10.1088/0953-8984/26/21/213201


  The ELSI infrastructure was used in your run to solve the Kohn-Sham electronic structure.
  Please check out http://elsi-interchange.org to learn more.
  If scalability is important for your project, please acknowledge ELSI by citing:

    V. W-z. Yu, F. Corsetti, A. Garcia, W. P. Huhn, M. Jacquelin, W. Jia,
    B. Lange, L. Lin, J. Lu, W. Mi, A. Seifitokaldani, A. Vazquez-Mayagoitia,
    C. Yang, H. Yang, and V. Blum
    'ELSI: A unified software interface for Kohn-Sham electronic structure solvers'
    Computer Physics Communications 222, 267-285 (2018).
    http://dx.doi.org/10.1016/j.cpc.2017.09.007


  For the real-space grid partitioning and parallelization used in this calculation, please cite:

    Ville Havu, Volker Blum, Paula Havu, and Matthias Scheffler,
    'Efficient O(N) integration for all-electron electronic structure calculation'
    'using numerically tabulated basis functions'
    Journal of Computational Physics 228, 8367-8379 (2009).
    http://dx.doi.org/10.1016/j.jcp.2009.08.008

  Of course, there are many other important community references, e.g., those cited in the
  above references. Our list is limited to references that describe implementations in the
  FHI-aims code. The reason is purely practical (length of this list) - please credit others as well.

------------------------------------------------------------
          Leaving FHI-aims.
          Date     :  20200815, Time     :  003240.773

          Computational steps:
          | Number of self-consistency cycles          :           15
          | Number of SCF (re)initializations          :            1

          Detailed time accounting                     :  max(cpu_time)    wall_clock(cpu1)
          | Total time                                 :       21.244 s          21.304 s
          | Preparation time                           :        0.144 s           0.145 s
          | Boundary condition initalization           :        0.000 s           0.000 s
          | Grid partitioning                          :        0.111 s           0.111 s
          | Preloading free-atom quantities on grid    :        0.002 s           0.003 s
          | Free-atom superposition energy             :        0.084 s           0.084 s
          | Total time for integrations                :        8.005 s           8.019 s
          | Total time for solution of K.-S. equations :        0.035 s           0.035 s
          | Total time for density & force components  :        6.652 s           6.663 s
          | Total time for mixing                      :        0.195 s           0.194 s
          | Total time for Hartree multipole update    :        0.129 s           0.132 s
          | Total time for Hartree multipole sum       :        5.492 s           5.495 s
          | Total time for total energy evaluation     :        0.003 s           0.004 s
          | Total time for vdW correction              :        0.089 s           0.090 s

          Partial memory accounting:
          | Residual value for overall tracked memory usage across tasks :           0.000 MB (should be 0.000 MB)
          | Peak values for overall tracked memory usage (after allocating hessian_basis_wave):
          |   Minimum:        1.612 MB (on task 1)
          |   Maximum:        1.612 MB (on task 1)
          |   Average:        1.612 MB
          | Largest tracked array allocation (hessian_basis_wave):
          |   Minimum:        0.788 MB (on task 1)
          |   Maximum:        0.788 MB (on task 1)
          |   Average:        0.788 MB
          Note:  These values currently only include a subset of arrays which are explicitly tracked.
          The "true" memory usage will be greater.

          Have a nice day.
------------------------------------------------------------
