  MPI-parallelism will be employed.
------------------------------------------------------------
          Invoking FHI-aims ...
          Version 171221_1
          Compiled on 2019/09/09 at 14:39:39 on host puhti-login2.bullx.

          When using FHI-aims, please cite the following reference:

          Volker Blum, Ralf Gehrke, Felix Hanke, Paula Havu,
          Ville Havu, Xinguo Ren, Karsten Reuter, and Matthias Scheffler,
          'Ab Initio Molecular Simulations with Numeric Atom-Centered Orbitals',
          Computer Physics Communications 180, 2175-2196 (2009)

          For any questions about FHI-aims, please visit the aimsclub website
          with its forums and wiki. Contributions to both the forums and the
          wiki are warmly encouraged - they are for you, and everyone is welcome there.

------------------------------------------------------------



  Date     :  20200815, Time     :  004053.214
  Time zero on CPU 1             :   0.113570000000000E-01  s.
  Internal wall clock time zero  :           366684053.214  s.

  FHI-aims created a unique identifier for this run for later identification
  aims_uuid : C3EAB4D7-EB46-43FA-ADE8-568154A6793E

  Using        1 parallel tasks.
  Task        0 on host r16c29.bullx reporting.

  Performing system and environment tests:
  | Environment variable OMP_NUM_THREADS correctly set to 1.
  | Stacksize not measured: no C compiler
  | Checking for scalapack...
  | Testing pdtran()...
  | All pdtran() tests passed.

  Obtaining array dimensions for all initial allocations:
  
  -----------------------------------------------------------------------
  Parsing control.in (first pass over file, find array dimensions only).
  The contents of control.in will be repeated verbatim below
  unless switched off by setting 'verbatim_writeout .false.' .
  in the first line of control.in .
  -----------------------------------------------------------------------
  
  #########################################################################################
  #
  #  Volker Blum, FHI 2009 : Test run input file control.in for simple H2O
  #
  #########################################################################################
  #
  #  Physical model
  #
    xc                 pbe
    vdw_correction_hirshfeld
    spin               none
    relativistic       none
    charge             0.
  #
  #  SCF convergence
  #
    occupation_type    gaussian 0.01
    mixer              pulay
      n_max_pulay        10
      charge_mix_param   0.2
    sc_accuracy_rho    1E-5
    sc_accuracy_eev    1E-3
    sc_accuracy_etot   1E-6
    sc_accuracy_forces 1E-4
    sc_iter_limit      100
  #
  #  Relaxation
  #
  #  relax_geometry   bfgs 1.e-3
  #
  ################################################################################
  #
  #  FHI-aims code project
  #  VB, Fritz-Haber Institut, 2009
  #
  #  Suggested "light" defaults for H atom (to be pasted into control.in file)
  #  Be sure to double-check any results obtained with these settings for post-processing,
  #  e.g., with the "tight" defaults and larger basis sets.
  #
  ################################################################################
    species        H
  #     global species definitions
      nucleus             1
      mass                1.00794
  #
      l_hartree           4
  #
      cut_pot             3.5  1.5  1.0
      basis_dep_cutoff    1e-4
  #
      radial_base         24 5.0
      radial_multiplier   1
      angular_grids       specified
        division   0.2421   50
        division   0.3822  110
        division   0.4799  194
        division   0.5341  302
  #      division   0.5626  434
  #      division   0.5922  590
  #      division   0.6542  770
  #      division   0.6868 1202
  #      outer_grid  770
        outer_grid  302
  ################################################################################
  #
  #  Definition of "minimal" basis
  #
  ################################################################################
  #     valence basis states
      valence      1  s   1.
  #     ion occupancy
      ion_occ      1  s   0.5
  ################################################################################
  #
  #  Suggested additional basis functions. For production calculations,
  #  uncomment them one after another (the most important basis functions are
  #  listed first).
  #
  #  Basis constructed for dimers: 0.5 A, 0.7 A, 1.0 A, 1.5 A, 2.5 A
  #
  ################################################################################
  #  "First tier" - improvements: -1014.90 meV to -62.69 meV
       hydro 2 s 2.1
       hydro 2 p 3.5
  #  "Second tier" - improvements: -12.89 meV to -1.83 meV
  #     hydro 1 s 0.85
  #     hydro 2 p 3.7
  #     hydro 2 s 1.2
  #     hydro 3 d 7
  #  "Third tier" - improvements: -0.25 meV to -0.12 meV
  #     hydro 4 f 11.2
  #     hydro 3 p 4.8
  #     hydro 4 d 9
  #     hydro 3 s 3.2
  ################################################################################
  #
  #  FHI-aims code project
  #  VB, Fritz-Haber Institut, 2009
  #
  #  Suggested "light" defaults for C atom (to be pasted into control.in file)
  #  Be sure to double-check any results obtained with these settings for post-processing,
  #  e.g., with the "tight" defaults and larger basis sets.
  #
  ################################################################################
    species        C
  #     global species definitions
      nucleus             6
      mass                12.0107
  #
      l_hartree           4
  #
      cut_pot             3.5  1.5  1.0
      basis_dep_cutoff    1e-4
  #
      radial_base         34 5.0
      radial_multiplier   1
      angular_grids specified
        division   0.3326   50
        division   0.5710  110
        division   0.7727  194
        division   0.8772  302
  #      division   0.9334  434
  #      division   0.9625  590
  #      division   0.9924  770
  #      division   1.0230  974
  #      division   1.4589 1202
  #     outer_grid  974
       outer_grid 302
  ################################################################################
  #
  #  Definition of "minimal" basis
  #
  ################################################################################
  #     valence basis states
      valence      2  s   2.
      valence      2  p   2.
  #     ion occupancy
      ion_occ      2  s   1.
      ion_occ      2  p   1.
  ################################################################################
  #
  #  Suggested additional basis functions. For production calculations,
  #  uncomment them one after another (the most important basis functions are
  #  listed first).
  #
  #  Constructed for dimers: 1.0 A, 1.25 A, 1.5 A, 2.0 A, 3.0 A
  #
  ################################################################################
  #  "First tier" - improvements: -1214.57 meV to -155.61 meV
       hydro 2 p 1.7
       hydro 3 d 6
       hydro 2 s 4.9
  #  "Second tier" - improvements: -67.75 meV to -5.23 meV
  #     hydro 4 f 9.8
  #     hydro 3 p 5.2
  #     hydro 3 s 4.3
  #     hydro 5 g 14.4
  #     hydro 3 d 6.2
  #  "Third tier" - improvements: -2.43 meV to -0.60 meV
  #     hydro 2 p 5.6
  #     hydro 2 s 1.4
  #     hydro 3 d 4.9
  #     hydro 4 f 11.2
  #  "Fourth tier" - improvements: -0.39 meV to -0.18 meV
  #     hydro 2 p 2.1
  #     hydro 5 g 16.4
  #     hydro 4 d 13.2
  #     hydro 3 s 13.6
  #     hydro 4 f 17.6
  #  Further basis functions - improvements: -0.08 meV and below
  #     hydro 3 s 2
  #     hydro 3 p 6
  #     hydro 4 d 20
  ################################################################################
  #
  #  FHI-aims code project
  #  VB, Fritz-Haber Institut, 2009
  #
  #  Suggested "light" defaults for N atom (to be pasted into control.in file)
  #  Be sure to double-check any results obtained with these settings for post-processing,
  #  e.g., with the "tight" defaults and larger basis sets.
  #
  ################################################################################
    species        N
  #     global species definitions
      nucleus             7
      mass                14.0067
  #
      l_hartree           4
  #
      cut_pot             3.5  1.5  1.0
      basis_dep_cutoff    1e-4
  #
      radial_base         35 5.0
      radial_multiplier   1
      angular_grids       specified
        division   0.2599   50
        division   0.4601  110
        division   0.5885  194
        division   0.6503  302
  #      division   0.6939  434
  #      division   0.7396  590
  #      division   0.7632  770
  #      division   0.8122  974
  #      division   1.1604 1202
  #      outer_grid  974
        outer_grid  302
  ################################################################################
  #
  #  Definition of "minimal" basis
  #
  ################################################################################
  #     valence basis states
      valence      2  s   2.
      valence      2  p   3.
  #     ion occupancy
      ion_occ      2  s   1.
      ion_occ      2  p   2.
  ################################################################################
  #
  #  Suggested additional basis functions. For production calculations,
  #  uncomment them one after another (the most important basis functions are
  #  listed first).
  #
  #  Constructed for dimers: 1.0 A, 1.1 A, 1.5 A, 2.0 A, 3.0 A
  #
  ################################################################################
  #  "First tier" - improvements: -1193.42 meV to -220.60 meV
       hydro 2 p 1.8
       hydro 3 d 6.8
       hydro 3 s 5.8
  #  "Second tier" - improvements: -80.21 meV to -6.86 meV
  #     hydro 4 f 10.8
  #     hydro 3 p 5.8
  #     hydro 1 s 0.8
  #     hydro 5 g 16
  #     hydro 3 d 4.9
  #  "Third tier" - improvements: -4.29 meV to -0.53 meV
  #     hydro 3 s 16
  #     ionic 2 p auto
  #     hydro 3 d 6.6
  #     hydro 4 f 11.6
  #  "Fourth tier" - improvements: -0.75 meV to -0.25 meV
  #     hydro 2 p 4.5
  #     hydro 2 s 2.4
  #     hydro 5 g 14.4
  #     hydro 4 d 14.4
  #     hydro 4 f 16.8
  # Further basis functions - -0.21 meV and below
  #     hydro 3 p 14.8
  #     hydro 3 s 4.4
  #     hydro 3 d 19.6
  #     hydro 5 g 12.8
  ################################################################################
  #
  #  FHI-aims code project
  #  VB, Fritz-Haber Institut, 2009
  #
  #  Suggested "light" defaults for O atom (to be pasted into control.in file)
  #  Be sure to double-check any results obtained with these settings for post-processing,
  #  e.g., with the "tight" defaults and larger basis sets.
  #
  ################################################################################
    species        O
  #     global species definitions
      nucleus             8
      mass                15.9994
  #
      l_hartree           4
  #
      cut_pot             3.5  1.5  1.0
      basis_dep_cutoff    1e-4
  #
      radial_base         36 5.0
      radial_multiplier   1
       angular_grids specified
        division   0.2659   50
        division   0.4451  110
        division   0.6052  194
        division   0.7543  302
  #      division   0.8014  434
  #      division   0.8507  590
  #      division   0.8762  770
  #      division   0.9023  974
  #      division   1.2339 1202
  #      outer_grid 974
        outer_grid 302
  ################################################################################
  #
  #  Definition of "minimal" basis
  #
  ################################################################################
  #     valence basis states
      valence      2  s   2.
      valence      2  p   4.
  #     ion occupancy
      ion_occ      2  s   1.
      ion_occ      2  p   3.
  ################################################################################
  #
  #  Suggested additional basis functions. For production calculations,
  #  uncomment them one after another (the most important basis functions are
  #  listed first).
  #
  #  Constructed for dimers: 1.0 A, 1.208 A, 1.5 A, 2.0 A, 3.0 A
  #
  ################################################################################
  #  "First tier" - improvements: -699.05 meV to -159.38 meV
       hydro 2 p 1.8
       hydro 3 d 7.6
       hydro 3 s 6.4
  #  "Second tier" - improvements: -49.91 meV to -5.39 meV
  #     hydro 4 f 11.6
  #     hydro 3 p 6.2
  #     hydro 3 d 5.6
  #     hydro 5 g 17.6
  #     hydro 1 s 0.75
  #  "Third tier" - improvements: -2.83 meV to -0.50 meV
  #     ionic 2 p auto
  #     hydro 4 f 10.8
  #     hydro 4 d 4.7
  #     hydro 2 s 6.8
  #  "Fourth tier" - improvements: -0.40 meV to -0.12 meV
  #     hydro 3 p 5
  #     hydro 3 s 3.3
  #     hydro 5 g 15.6
  #     hydro 4 f 17.6
  #     hydro 4 d 14
  # Further basis functions - -0.08 meV and below
  #     hydro 3 s 2.1
  #     hydro 4 d 11.6
  #     hydro 3 p 16
  #     hydro 2 s 17.2
  
  -----------------------------------------------------------------------
  Completed first pass over input file control.in .
  -----------------------------------------------------------------------
  
  
  -----------------------------------------------------------------------
  Parsing geometry.in (first pass over file, find array dimensions only).
  The contents of geometry.in will be repeated verbatim below
  unless switched off by setting 'verbatim_writeout .false.' .
  in the first line of geometry.in .
  -----------------------------------------------------------------------
  
  atom  0.00000 0.00000 0.00000 C
  atom  1.09300 0.00000 0.00000 H
  atom  -0.47961 0.00000 -1.41207 N
  atom  0.31302 0.18913 -2.02672 H
  atom  -0.87768 -0.91300 -1.62206 H
  atom  -0.49584 1.26211 0.72868 C
  atom  -1.58789 1.28919 0.74431 H
  atom  -0.13407 1.27425 1.75947 H
  atom  -0.13407 2.16087 0.22380 H
  atom  -0.39425 -1.28861 0.74398 C
  atom  -0.10189 -1.56493 1.88303 O
  atom  -1.10210 -2.13717 0.06896 O
  atom  -1.97857 -1.74691 0.22538 H
  
  -----------------------------------------------------------------------
  Completed first pass over input file geometry.in .
  -----------------------------------------------------------------------
  

  Basic array size parameters:
  | Number of species                 :        4
  | Number of atoms                   :       13
  | Max. basis fn. angular momentum   :        2
  | Max. atomic/ionic basis occupied n:        2
  | Max. number of basis fn. types    :        2
  | Max. radial fns per species/type  :        3
  | Max. logarithmic grid size        :     1301
  | Max. radial integration grid size :       36
  | Max. angular integration grid size:      302
  | Max. angular grid division number :        8
  | Radial grid for Hartree potential :     1301
  | Number of spin channels           :        1

------------------------------------------------------------
          Reading file control.in.
------------------------------------------------------------
  XC: Using PBE gradient-corrected functionals.
  Spin treatment: No spin polarisation.
  Non-relativistic treatment of kinetic energy.
  Charge =   0.000000E+00: Neutral system requested explicitly.
  Occupation type: Gaussian broadening, width =   0.100000E-01 eV.
  Using pulay charge density mixing.
  Pulay mixing - number of memorized iterations:   10
  Charge density mixing - mixing parameter:     0.2000
  Convergence accuracy of self-consistent charge density:  0.1000E-04
  Convergence accuracy of sum of eigenvalues:  0.1000E-02
  Convergence accuracy of total energy:  0.1000E-05
  Convergence accuracy of forces:  0.1000E-03
  Maximum number of s.-c. iterations  :   100
 
  Reading configuration options for species H                   .
  | Found nuclear charge :   1.0000
  | Found atomic mass :    1.00794000000000      amu
  | Found l_max for Hartree potential  :   4
  | Found cutoff potl. onset [A], width [A], scale factor :    3.50000    1.50000    1.00000
  | Threshold for basis-dependent cutoff potential is   0.100000E-03
  | Found data for basic radial integration grid :    24 points, outermost radius =    5.000 A
  | Found multiplier for basic radial grid :   1
  | Found angular grid specification: user-specified.
  | Specified grid contains     5 separate shells.
  | Check grid settings after all constraints further below.
  | Found free-atom valence shell :  1 s   1.000
  | No ionic wave fns used. Skipping ion_occ.
  | Found hydrogenic basis function :  2 s   2.100
  | Found hydrogenic basis function :  2 p   3.500
  Species H                   : Missing cutoff potential type.
  Defaulting to exp(1/x)/(1-x)^2 type cutoff potential.
  Species H : No 'logarithmic' tag. Using default grid for free atom:
  | Default logarithmic grid data [bohr] : 0.1000E-03 0.1000E+03 0.1012E+01
  Species H : On-site basis accuracy parameter (for Gram-Schmidt orthonormalisation) not specified.
  Using default value basis_acc =  0.1000000E-03.
  Species H                   : Using default innermost maximum threshold i_radial=  2 for radial functions.
  Species H                   : Default cutoff onset for free atom density etc. : 0.35000000E+01 AA.
  Species H                   : Basic radial grid will be enhanced according to radial_multiplier =   1, to contain    24 grid points.
 
  Reading configuration options for species C                   .
  | Found nuclear charge :   6.0000
  | Found atomic mass :    12.0107000000000      amu
  | Found l_max for Hartree potential  :   4
  | Found cutoff potl. onset [A], width [A], scale factor :    3.50000    1.50000    1.00000
  | Threshold for basis-dependent cutoff potential is   0.100000E-03
  | Found data for basic radial integration grid :    34 points, outermost radius =    5.000 A
  | Found multiplier for basic radial grid :   1
  | Found angular grid specification: user-specified.
  | Specified grid contains     5 separate shells.
  | Check grid settings after all constraints further below.
  | Found free-atom valence shell :  2 s   2.000
  | Found free-atom valence shell :  2 p   2.000
  | No ionic wave fns used. Skipping ion_occ.
  | No ionic wave fns used. Skipping ion_occ.
  | Found hydrogenic basis function :  2 p   1.700
  | Found hydrogenic basis function :  3 d   6.000
  | Found hydrogenic basis function :  2 s   4.900
  Species C                   : Missing cutoff potential type.
  Defaulting to exp(1/x)/(1-x)^2 type cutoff potential.
  Species C : No 'logarithmic' tag. Using default grid for free atom:
  | Default logarithmic grid data [bohr] : 0.1000E-03 0.1000E+03 0.1012E+01
  Species C : On-site basis accuracy parameter (for Gram-Schmidt orthonormalisation) not specified.
  Using default value basis_acc =  0.1000000E-03.
  Species C                   : Using default innermost maximum threshold i_radial=  2 for radial functions.
  Species C                   : Default cutoff onset for free atom density etc. : 0.35000000E+01 AA.
  Species C                   : Basic radial grid will be enhanced according to radial_multiplier =   1, to contain    34 grid points.
 
  Reading configuration options for species N                   .
  | Found nuclear charge :   7.0000
  | Found atomic mass :    14.0067000000000      amu
  | Found l_max for Hartree potential  :   4
  | Found cutoff potl. onset [A], width [A], scale factor :    3.50000    1.50000    1.00000
  | Threshold for basis-dependent cutoff potential is   0.100000E-03
  | Found data for basic radial integration grid :    35 points, outermost radius =    5.000 A
  | Found multiplier for basic radial grid :   1
  | Found angular grid specification: user-specified.
  | Specified grid contains     5 separate shells.
  | Check grid settings after all constraints further below.
  | Found free-atom valence shell :  2 s   2.000
  | Found free-atom valence shell :  2 p   3.000
  | No ionic wave fns used. Skipping ion_occ.
  | No ionic wave fns used. Skipping ion_occ.
  | Found hydrogenic basis function :  2 p   1.800
  | Found hydrogenic basis function :  3 d   6.800
  | Found hydrogenic basis function :  3 s   5.800
  Species N                   : Missing cutoff potential type.
  Defaulting to exp(1/x)/(1-x)^2 type cutoff potential.
  Species N : No 'logarithmic' tag. Using default grid for free atom:
  | Default logarithmic grid data [bohr] : 0.1000E-03 0.1000E+03 0.1012E+01
  Species N : On-site basis accuracy parameter (for Gram-Schmidt orthonormalisation) not specified.
  Using default value basis_acc =  0.1000000E-03.
  Species N                   : Using default innermost maximum threshold i_radial=  2 for radial functions.
  Species N                   : Default cutoff onset for free atom density etc. : 0.35000000E+01 AA.
  Species N                   : Basic radial grid will be enhanced according to radial_multiplier =   1, to contain    35 grid points.
 
  Reading configuration options for species O                   .
  | Found nuclear charge :   8.0000
  | Found atomic mass :    15.9994000000000      amu
  | Found l_max for Hartree potential  :   4
  | Found cutoff potl. onset [A], width [A], scale factor :    3.50000    1.50000    1.00000
  | Threshold for basis-dependent cutoff potential is   0.100000E-03
  | Found data for basic radial integration grid :    36 points, outermost radius =    5.000 A
  | Found multiplier for basic radial grid :   1
  | Found angular grid specification: user-specified.
  | Specified grid contains     5 separate shells.
  | Check grid settings after all constraints further below.
  | Found free-atom valence shell :  2 s   2.000
  | Found free-atom valence shell :  2 p   4.000
  | No ionic wave fns used. Skipping ion_occ.
  | No ionic wave fns used. Skipping ion_occ.
  | Found hydrogenic basis function :  2 p   1.800
  | Found hydrogenic basis function :  3 d   7.600
  | Found hydrogenic basis function :  3 s   6.400
  Species O                   : Missing cutoff potential type.
  Defaulting to exp(1/x)/(1-x)^2 type cutoff potential.
  Species O : No 'logarithmic' tag. Using default grid for free atom:
  | Default logarithmic grid data [bohr] : 0.1000E-03 0.1000E+03 0.1012E+01
  Species O : On-site basis accuracy parameter (for Gram-Schmidt orthonormalisation) not specified.
  Using default value basis_acc =  0.1000000E-03.
  Species O                   : Using default innermost maximum threshold i_radial=  2 for radial functions.
  Species O                   : Default cutoff onset for free atom density etc. : 0.35000000E+01 AA.
  Species O                   : Basic radial grid will be enhanced according to radial_multiplier =   1, to contain    36 grid points.
 
  Finished reading input file 'control.in'. Consistency checks are next.
 
  MPI_IN_PLACE appears to work with this MPI implementation.
  | Keeping use_mpi_in_place .true. (see manual).
  Target number of points in a grid batch is not set. Defaulting to  100
  Method for grid partitioning is not set. Defaulting to parallel hash+maxmin partitioning.
  Batch size limit is not set. Defaulting to    200
  By default, will store active basis functions for each batch.
  If in need of memory, prune_basis_once .false. can be used to disable this option.
  communication_type for Hartree potential was not specified.
  Defaulting to calc_hartree .
  Pulay mixer: Number of initial linear mixing iterations not set.
  Defaulting to    0 iterations.
  Work space size for distributed Hartree potential not set.
  Defaulting to   0.200000E+03 MB.
  Algorithm-dependent basis array size parameters:
  | n_max_pulay                         :       10
  Presetting      1001 iterations before the initial mixing cycle
  is restarted anyway using the sc_init_iter criterion / keyword.
  Presetting a factor      1.000 between actual scf density residual
  and density convergence criterion sc_accuracy_rho below which sc_init_iter
  takes no effect.
  Geometry relaxation not requested: no relaxation will be performed.
  Handling of forces: Unphysical translation and rotation will be removed from forces.
  No accuracy limit for integral partition fn. given. Defaulting to  0.1000E-14.
  No threshold value for u(r) in integrations given. Defaulting to  0.1000E-05.
  No accuracy for occupation numbers given. Defaulting to  0.1000E-12.
  No threshold value for occupation numbers given. Defaulting to  0.0000E+00.
  No accuracy for fermi level given. Defaulting to  0.1000E-19.
  Maximum # of iterations to find E_F not set. Defaulting to  200.
  Preferred method for the eigenvalue solver ('KS_method') not specified in 'control.in'.
  Defaulting to serial version, 'lapack_fast'.
  Will not use alltoall communication since running on < 1024 CPUs.
  Threshold for basis singularities not set.
  Default threshold for basis singularities:  0.1000E-04
  partition_type (choice of integration weights) for integrals was not specified.
  | Using a version of the partition function of Stratmann and coworkers ('stratmann_smoother').
  | At each grid point, the set of atoms used to build the partition table is smoothly restricted to
  | only those atoms whose free-atom density would be non-zero at that grid point.
  Partitioning for Hartree potential was not defined. Using partition_type for integrals.
  | Adjusted default value of keyword multip_moments_threshold to:       0.10000000E-11
  | This value may affect high angular momentum components of the Hartree potential in periodic systems.
  No q(lm)/r^(l+1) cutoff set for long-range Hartree potential.
  | Using default value of  0.100000E-09 .
  | Verify using the multipole_threshold keyword.
  Defaulting to new monopole extrapolation.
  Density update method: automatic selection selected.
------------------------------------------------------------


------------------------------------------------------------
          Reading geometry description geometry.in.
------------------------------------------------------------
  Input structure read successfully.
  The structure contains       13 atoms,  and a total of         48.000 electrons.

  Input geometry:
  | No unit cell requested.
  | Atomic structure:
  |       Atom                x [A]            y [A]            z [A]
  |    1: Species C             0.00000000        0.00000000        0.00000000
  |    2: Species H             1.09300000        0.00000000        0.00000000
  |    3: Species N            -0.47961000        0.00000000       -1.41207000
  |    4: Species H             0.31302000        0.18913000       -2.02672000
  |    5: Species H            -0.87768000       -0.91300000       -1.62206000
  |    6: Species C            -0.49584000        1.26211000        0.72868000
  |    7: Species H            -1.58789000        1.28919000        0.74431000
  |    8: Species H            -0.13407000        1.27425000        1.75947000
  |    9: Species H            -0.13407000        2.16087000        0.22380000
  |   10: Species C            -0.39425000       -1.28861000        0.74398000
  |   11: Species O            -0.10189000       -1.56493000        1.88303000
  |   12: Species O            -1.10210000       -2.13717000        0.06896000
  |   13: Species H            -1.97857000       -1.74691000        0.22538000
  |

  | The smallest distance between any two atoms is         0.97209554 AA.
  |
  | The first atom of this pair is atom number                     12 .
  | The second atom of this pair is atom number                    13 .

  Number of empty states per atom not set in control.in - providing a guess from actual geometry.
  | Total number of empty states used during s.c.f. cycle:       29
  If you use a very high smearing, use empty_states (per atom!) in control.in to increase this value.

  Structure-dependent array size parameters: 
  | Maximum number of distinct radial functions  :       21
  | Maximum number of basis functions            :      119
  | Number of Kohn-Sham states (occupied + empty):       53
------------------------------------------------------------

------------------------------------------------------------
          Preparing all fixed parts of the calculation.
------------------------------------------------------------
  Determining machine precision:
    2.225073858507201E-308
  Setting up grids for atomic and cluster calculations.

  Creating wave function, potential, and density for free atoms.

  Species: H

  List of occupied orbitals and eigenvalues:
    n    l              occ      energy [Ha]    energy [eV]
    1    0           1.0000        -0.237589        -6.4651


  Species: C

  List of occupied orbitals and eigenvalues:
    n    l              occ      energy [Ha]    energy [eV]
    1    0           2.0000       -10.038835      -273.1706
    2    0           2.0000        -0.502696       -13.6791
    2    1           2.0000        -0.191971        -5.2238


  Species: N

  List of occupied orbitals and eigenvalues:
    n    l              occ      energy [Ha]    energy [eV]
    1    0           2.0000       -14.128000      -384.4424
    2    0           2.0000        -0.681077       -18.5330
    2    1           3.0000        -0.259788        -7.0692


  Species: O

  List of occupied orbitals and eigenvalues:
    n    l              occ      energy [Ha]    energy [eV]
    1    0           2.0000       -18.898188      -514.2459
    2    0           2.0000        -0.878505       -23.9053
    2    1           4.0000        -0.331779        -9.0282

  Creating fixed part of basis set: Ionic, confined, hydrogenic.
 
  H                    hydrogenic:
 
  List of hydrogenic basis orbitals: 
    n    l      effective z      eigenvalue [eV]  inner max. [A]     outer max. [A]     outer radius [A]   
    2    0         2.100000       -14.9728           0.193243           1.317208           4.583499
    2    1         3.500000       -41.6669           0.602369           0.602369           3.723403
 
 
  C                    hydrogenic:
 
  List of hydrogenic basis orbitals: 
    n    l      effective z      eigenvalue [eV]  inner max. [A]     outer max. [A]     outer radius [A]   
    2    1         1.700000        -9.7616           1.230570           1.230570           4.607917
    3    2         6.000000       -54.4224           0.792453           0.792453           3.883070
    2    0         4.900000       -81.6679           0.082559           0.562749           3.078220
 
 
  N                    hydrogenic:
 
  List of hydrogenic basis orbitals: 
    n    l      effective z      eigenvalue [eV]  inner max. [A]     outer max. [A]     outer radius [A]   
    2    1         1.800000       -10.9749           1.177451           1.177451           4.573712
    3    2         6.800000       -69.9026           0.704619           0.704619           3.538137
    3    0         5.800000       -50.8545           0.067388           1.191934           4.250239
 
 
  O                    hydrogenic:
 
  List of hydrogenic basis orbitals: 
    n    l      effective z      eigenvalue [eV]  inner max. [A]     outer max. [A]     outer radius [A]   
    2    1         1.800000       -10.9749           1.164242           1.164242           4.578029
    3    2         7.600000       -87.3180           0.624125           0.624125           3.251020
    3    0         6.400000       -61.9207           0.061167           1.081902           4.001998
 

  Adding cutoff potential to free-atom effective potential.
  Creating atomic-like basis functions for current effective potential.

  Species H                   :

  List of atomic basis orbitals and eigenvalues:
    n    l      energy [Ha]    energy [eV]    outer radius [A]
    1    0        -0.237589        -6.4651       4.527807


  Species C                   :

  List of atomic basis orbitals and eigenvalues:
    n    l      energy [Ha]    energy [eV]    outer radius [A]
    1    0       -10.038835      -273.1706       1.934409
    2    0        -0.502696       -13.6791       4.496620
    2    1        -0.191971        -5.2238       4.551928


  Species N                   :

  List of atomic basis orbitals and eigenvalues:
    n    l      energy [Ha]    energy [eV]    outer radius [A]
    1    0       -14.128000      -384.4424       1.637919
    2    0        -0.681077       -18.5330       4.463241
    2    1        -0.259788        -7.0692       4.518138


  Species O                   :

  List of atomic basis orbitals and eigenvalues:
    n    l      energy [Ha]    energy [eV]    outer radius [A]
    1    0       -18.898188      -514.2459       1.415765
    2    0        -0.878505       -23.9053       4.413171
    2    1        -0.331779        -9.0282       4.522403

  Assembling full basis from fixed parts.
  | Species H :   atomic orbital   1 s accepted.
  | Species H :    hydro orbital   2 s accepted.
  | Species H :    hydro orbital   2 p accepted.
  | Species C :   atomic orbital   1 s accepted.
  | Species C :    hydro orbital   2 s accepted.
  | Species C :   atomic orbital   2 s accepted.
  | Species C :   atomic orbital   2 p accepted.
  | Species C :    hydro orbital   2 p accepted.
  | Species C :    hydro orbital   3 d accepted.
  | Species N :   atomic orbital   1 s accepted.
  | Species N :    hydro orbital   3 s accepted.
  | Species N :   atomic orbital   2 s accepted.
  | Species N :   atomic orbital   2 p accepted.
  | Species N :    hydro orbital   2 p accepted.
  | Species N :    hydro orbital   3 d accepted.
  | Species O :   atomic orbital   1 s accepted.
  | Species O :    hydro orbital   3 s accepted.
  | Species O :   atomic orbital   2 s accepted.
  | Species O :   atomic orbital   2 p accepted.
  | Species O :    hydro orbital   2 p accepted.
  | Species O :    hydro orbital   3 d accepted.
 
  Basis size parameters after reduction:
  | Total number of radial functions:       21
  | Total number of basis functions :      119
 
  Per-task memory consumption for arrays in subroutine allocate_ext:
  |           5.250512MB.
  Testing on-site integration grid accuracy.
  |  Species  Function  <phi|h_atom|phi> (log., in eV)  <phi|h_atom|phi> (rad., in eV)
           1        1                 -6.4663192853                 -6.4651273558
           1        2                 13.7111246313                 13.7170609718
           1        3                 25.2673269279                 25.2674696378
           2        4               -273.1705927641               -273.1705631568
           2        5                -10.7109323383                -10.7107120029
           2        6                 17.4381822266                 17.4352413244
           2        7                 -5.2255326521                 -5.2270484734
           2        8                  8.6835629259                  8.6603288385
           2        9                 27.4952418996                 27.4953360207
           3       10               -384.4424306495               -384.4423701208
           3       11                 12.5842251816                 12.5842222903
           3       12                -15.7264628251                -15.7264433455
           3       13                 -7.0696854293                 -7.0701769954
           3       14                  8.8090390882                  8.7901077751
           3       15                 35.9586762123                 35.9588528632
           4       16               -514.2458688638               -514.2457643834
           4       17                 15.1795651126                 15.1795290741
           4       18                -21.5359799773                -21.5360846186
           4       19                 -9.0283069236                 -9.0284644067
           4       20                  8.3027758564                  8.2834874195
           4       21                 45.8339351984                 45.8338762259

  Preparing densities etc. for the partition functions (integrals / Hartree potential).

  Preparations completed.
  max(cpu_time)          :      0.146 s.
  Wall clock time (cpu1) :      0.148 s.
------------------------------------------------------------

------------------------------------------------------------
          Begin self-consistency loop: Initialization.

          Date     :  20200815, Time     :  004053.375
------------------------------------------------------------

  Initializing index lists of integration centers etc. from given atomic structure:
  | Number of centers in hartree potential         :        13
  | Number of centers in hartree multipole         :        13
  | Number of centers in electron density summation:        13
  | Number of centers in basis integrals           :        13
  | Number of centers in integrals                 :        13
  | Number of centers in hamiltonian               :        13
  Partitioning the integration grid into batches with parallel hashing+maxmin method.
  | Number of batches:      965
  | Maximal batch size:     139
  | Minimal batch size:      66
  | Average batch size:      72.172
  | Standard deviation of batch sizes:      16.328

  Integration load balanced across     1 MPI tasks.
  Work distribution over tasks is as follows:
  Task     0 has      69646 integration points.
  Initializing partition tables, free-atom densities, potentials, etc. across the integration grid (initialize_grid_storage).
  | initialize_grid_storage: Actual outermost partition radius vs. multipole_radius_free
  | (-- VB: in principle, multipole_radius_free should be larger, hence this output)
  | Species        1: Confinement radius =              4.999999999999999 AA, multipole_radius_free =              5.054417573612229 AA.
  | Species        1: outer_partition_radius set to              5.054417573612229 AA .
  | Species        2: Confinement radius =              4.999999999999999 AA, multipole_radius_free =              5.019602836301480 AA.
  | Species        2: outer_partition_radius set to              5.019602836301480 AA .
  | Species        3: Confinement radius =              4.999999999999999 AA, multipole_radius_free =              5.043624274424571 AA.
  | Species        3: outer_partition_radius set to              5.043624274424571 AA .
  | Species        4: Confinement radius =              4.999999999999999 AA, multipole_radius_free =              5.048384829883283 AA.
  | Species        4: outer_partition_radius set to              5.048384829883283 AA .
  | Original list of interatomic distances with          13 x         13 entries is created.
  | Net number of integration points:    69646
  | of which are non-zero points    :    59487
  Renormalizing the initial density to the exact electron count on the 3D integration grid.
  | Initial density: Formal number of electrons (from input files) :      48.0000000000
  | Integrated number of electrons on 3D grid     :      47.9998537921
  | Charge integration error                      :      -0.0001462079
  | Normalization factor for density and gradient :       1.0000030460
  Obtaining max. number of non-zero basis functions in each batch (get_n_compute_maxes).
  | Maximal number of non-zero basis functions:      119 in task     0
  Selecting the method for density update.
  Loop over occupied states selected for charge density update.
  Allocating        0.050 MB for KS_eigenvector
  Integrating Hamiltonian matrix: batch-based integration.
  Time summed over all CPUs for integration: real work        0.497 s, elapsed        0.497 s
  Integrating overlap matrix.
  Time summed over all CPUs for integration: real work        0.213 s, elapsed        0.213 s

  Updating Kohn-Sham eigenvalues and eigenvectors using ELSI and the ELPA eigensolver.
  Overlap matrix is nonsingular
  | Lowest eigenvalue of overlap  :  0.46E-02
  | Highest eigenvalue of overlap :  0.62E+01
  Finished singularity check of overlap matrix
  | Time :     0.002 s
  Finished Cholesky decomposition
  | Time :     0.000 s
  Finished transformation to standard eigenproblem
  | Time :     0.000 s
  Starting LAPACK eigensolver
  Finished solving standard eigenproblem
  | Time :     0.002 s
  Finished back-transformation of eigenvectors
  | Time :     0.000 s

  Obtaining occupation numbers and chemical potential using ELSI.
  | Chemical potential (Fermi level):    -9.60202611eV
  Writing Kohn-Sham eigenvalues.

  State    Occupation    Eigenvalue [Ha]    Eigenvalue [eV]
      1       2.00000         -19.008440         -517.24597
      2       2.00000         -18.977278         -516.39800
      3       2.00000         -14.245850         -387.64929
      4       2.00000         -10.166590         -276.64699
      5       2.00000         -10.141351         -275.96021
      6       2.00000         -10.132151         -275.70986
      7       2.00000          -1.184068          -32.22012
      8       2.00000          -1.098292          -29.88606
      9       2.00000          -0.990615          -26.95600
     10       2.00000          -0.861713          -23.44841
     11       2.00000          -0.752837          -20.48575
     12       2.00000          -0.679379          -18.48684
     13       2.00000          -0.638462          -17.37343
     14       2.00000          -0.606640          -16.50753
     15       2.00000          -0.590643          -16.07222
     16       2.00000          -0.559248          -15.21790
     17       2.00000          -0.548799          -14.93357
     18       2.00000          -0.540497          -14.70768
     19       2.00000          -0.517382          -14.07868
     20       2.00000          -0.497888          -13.54822
     21       2.00000          -0.459954          -12.51598
     22       2.00000          -0.427980          -11.64593
     23       2.00000          -0.405011          -11.02092
     24       2.00000          -0.387076          -10.53288
     25       0.00000          -0.162892           -4.43252
     26       0.00000          -0.065965           -1.79500
     27       0.00000          -0.034219           -0.93115
     28       0.00000          -0.019314           -0.52557
     29       0.00000           0.006726            0.18301
     30       0.00000           0.010959            0.29821
     31       0.00000           0.023745            0.64614
     32       0.00000           0.030785            0.83771
     33       0.00000           0.035658            0.97030
     34       0.00000           0.070228            1.91100
     35       0.00000           0.086314            2.34871
     36       0.00000           0.132485            3.60511
     37       0.00000           0.166622            4.53401
     38       0.00000           0.204502            5.56479
     39       0.00000           0.214349            5.83273
     40       0.00000           0.223520            6.08229
     41       0.00000           0.258595            7.03671
     42       0.00000           0.272792            7.42305
     43       0.00000           0.291128            7.92199
     44       0.00000           0.307531            8.36834
     45       0.00000           0.321537            8.74946
     46       0.00000           0.363875            9.90155
     47       0.00000           0.376885           10.25556
     48       0.00000           0.393655           10.71189
     49       0.00000           0.425069           11.56672
     50       0.00000           0.464218           12.63202
     51       0.00000           0.520480           14.16299
     52       0.00000           0.526101           14.31594
     53       0.00000           0.564619           15.36407

  Highest occupied state (VBM) at    -10.53288353 eV
  | Occupation number:      2.00000000

  Lowest unoccupied state (CBM) at    -4.43252168 eV
  | Occupation number:      0.00000000

  Overall HOMO-LUMO gap:      6.10036185 eV.
  Calculating total energy contributions from superposition of free atom densities.

  Total energy components:
  | Sum of eigenvalues            :        -188.83629049 Ha       -5138.49690816 eV
  | XC energy correction          :         -41.78981216 Ha       -1137.15864694 eV
  | XC potential correction       :          53.72161924 Ha        1461.83963709 eV
  | Free-atom electrostatic energy:        -146.85201337 Ha       -3996.04660050 eV
  | Hartree energy correction     :           0.00000000 Ha           0.00000000 eV
  | vdW energy correction         :           0.00000000 Ha           0.00000000 eV
  | Entropy correction            :           0.00000000 Ha           0.00000000 eV
  | ---------------------------
  | Total energy                  :        -323.75649679 Ha       -8809.86251852 eV
  | Total energy, T -> 0          :        -323.75649679 Ha       -8809.86251852 eV  <-- do not rely on this value for anything but (periodic) metals
  | Electronic free energy        :        -323.75649679 Ha       -8809.86251852 eV

  Derived energy quantities:
  | Kinetic energy                :         320.50186735 Ha        8721.29954534 eV
  | Electrostatic energy          :        -602.46855197 Ha      -16394.00341691 eV
  | Energy correction for multipole
  | error in Hartree potential    :           0.00000000 Ha           0.00000000 eV
  | Sum of eigenvalues per atom                           :        -395.26899294 eV
  | Total energy (T->0) per atom                          :        -677.68173219 eV  <-- do not rely on this value for anything but (periodic) metals
  | Electronic free energy per atom                       :        -677.68173219 eV
  Initialize hartree_potential_storage
  Max. number of atoms included in rho_multipole:           13

  End scf initialization - timings             :  max(cpu_time)    wall_clock(cpu1)
  | Time for scf. initialization               :        1.153 s           1.162 s
  | Boundary condition initialization          :        0.000 s           0.000 s
  | Integration                                :        0.709 s           0.710 s
  | Solution of K.-S. eqns.                    :        0.004 s           0.004 s
  | Grid partitioning                          :        0.112 s           0.112 s
  | Preloading free-atom quantities on grid    :        0.002 s           0.002 s
  | Free-atom superposition energy             :        0.085 s           0.085 s
  | Total energy evaluation                    :        0.000 s           0.000 s

  Partial memory accounting:
  | Current value for overall tracked memory usage on task 0  :           0.165 MB
  | Peak value for overall tracked memory usage on task 0     :           0.678 MB after allocating wave
  | Largest tracked array allocation on task 0 so far         :           0.132 MB  when allocating H_times_psi
  Note:  These values currently only include a subset of arrays which are explicitly tracked.
  The "true" memory usage will be greater.
------------------------------------------------------------

------------------------------------------------------------
          Begin self-consistency iteration #    1

  Date     :  20200815, Time     :  004054.537
------------------------------------------------------------
  Evaluating new KS density.
  Integration grid: deviation in total charge (<rho> - N_e) =   5.684342E-14
  Pulay mixing of updated and previous charge densities.

  Evaluating partitioned Hartree potential by multipole expansion.
  | Analytical far-field extrapolation by fixed multipoles:
  | Hartree multipole sum: apparent total charge =  -0.252163E-03
  Summing up the Hartree potential.
  Time summed over all CPUs for potential: real work        0.282 s, elapsed        0.282 s
  | RMS charge density error from multipole expansion :   0.591294E-02

  Integrating Hamiltonian matrix: batch-based integration.
  Time summed over all CPUs for integration: real work        0.494 s, elapsed        0.494 s

  Updating Kohn-Sham eigenvalues and eigenvectors using ELSI and the ELPA eigensolver.
  Finished Cholesky decomposition
  | Time :     0.000 s
  Finished transformation to standard eigenproblem
  | Time :     0.000 s
  Starting LAPACK eigensolver
  Finished solving standard eigenproblem
  | Time :     0.001 s
  Finished back-transformation of eigenvectors
  | Time :     0.000 s

  Obtaining occupation numbers and chemical potential using ELSI.
  | Chemical potential (Fermi level):    -4.46393341eV
  Writing Kohn-Sham eigenvalues.

  State    Occupation    Eigenvalue [Ha]    Eigenvalue [eV]
      1       2.00000         -18.901549         -514.33732
      2       2.00000         -18.840586         -512.67844
      3       2.00000         -14.095953         -383.57040
      4       2.00000         -10.120127         -275.38267
      5       2.00000         -10.063247         -273.83488
      6       2.00000         -10.029263         -272.91012
      7       2.00000          -1.136259          -30.91919
      8       2.00000          -1.037088          -28.22059
      9       2.00000          -0.921261          -25.06878
     10       2.00000          -0.795284          -21.64077
     11       2.00000          -0.701572          -19.09075
     12       2.00000          -0.635025          -17.27991
     13       2.00000          -0.586437          -15.95776
     14       2.00000          -0.544770          -14.82395
     15       2.00000          -0.538260          -14.64679
     16       2.00000          -0.495987          -13.49650
     17       2.00000          -0.491030          -13.36160
     18       2.00000          -0.476846          -12.97564
     19       2.00000          -0.453314          -12.33529
     20       2.00000          -0.439325          -11.95464
     21       2.00000          -0.399893          -10.88163
     22       2.00000          -0.374859          -10.20044
     23       2.00000          -0.335035           -9.11678
     24       2.00000          -0.312451           -8.50222
     25       0.00000          -0.129350           -3.51979
     26       0.00000          -0.047109           -1.28189
     27       0.00000          -0.005027           -0.13678
     28       0.00000           0.016154            0.43958
     29       0.00000           0.036937            1.00510
     30       0.00000           0.052138            1.41874
     31       0.00000           0.059809            1.62748
     32       0.00000           0.072387            1.96975
     33       0.00000           0.078708            2.14174
     34       0.00000           0.106592            2.90052
     35       0.00000           0.124687            3.39291
     36       0.00000           0.161012            4.38135
     37       0.00000           0.192065            5.22635
     38       0.00000           0.229539            6.24608
     39       0.00000           0.245870            6.69045
     40       0.00000           0.262825            7.15184
     41       0.00000           0.288839            7.85971
     42       0.00000           0.307486            8.36713
     43       0.00000           0.328455            8.93773
     44       0.00000           0.346421            9.42659
     45       0.00000           0.357071            9.71641
     46       0.00000           0.405132           11.02421
     47       0.00000           0.410190           11.16185
     48       0.00000           0.433924           11.80768
     49       0.00000           0.463217           12.60477
     50       0.00000           0.496365           13.50677
     51       0.00000           0.558908           15.20867
     52       0.00000           0.562226           15.29895
     53       0.00000           0.597641           16.26263

  Highest occupied state (VBM) at     -8.50221772 eV
  | Occupation number:      2.00000000

  Lowest unoccupied state (CBM) at    -3.51978742 eV
  | Occupation number:      0.00000000

  Overall HOMO-LUMO gap:      4.98243030 eV.

  Total energy components:
  | Sum of eigenvalues            :        -185.45084153 Ha       -5046.37415463 eV
  | XC energy correction          :         -42.11938570 Ha       -1146.12679914 eV
  | XC potential correction       :          54.15026988 Ha        1473.50381460 eV
  | Free-atom electrostatic energy:        -146.85201337 Ha       -3996.04660050 eV
  | Hartree energy correction     :          -3.29892534 Ha         -89.76832596 eV
  | vdW energy correction         :           0.00000000 Ha           0.00000000 eV
  | Entropy correction            :           0.00000000 Ha           0.00000000 eV
  | ---------------------------
  | Total energy                  :        -323.57089606 Ha       -8804.81206563 eV
  | Total energy, T -> 0          :        -323.57089606 Ha       -8804.81206563 eV  <-- do not rely on this value for anything but (periodic) metals
  | Electronic free energy        :        -323.57089606 Ha       -8804.81206563 eV

  Derived energy quantities:
  | Kinetic energy                :         322.30280892 Ha        8770.30565901 eV
  | Electrostatic energy          :        -603.75431928 Ha      -16428.99092550 eV
  | Energy correction for multipole
  | error in Hartree potential    :           0.01207945 Ha           0.32869868 eV
  | Sum of eigenvalues per atom                           :        -388.18262728 eV
  | Total energy (T->0) per atom                          :        -677.29323582 eV  <-- do not rely on this value for anything but (periodic) metals
  | Electronic free energy per atom                       :        -677.29323582 eV

  Self-consistency convergence accuracy:
  | Change of charge density      :  0.5892E+00
  | Change of sum of eigenvalues  :  0.9212E+02 eV
  | Change of total energy        :  0.5050E+01 eV

  End self-consistency iteration #     1       :  max(cpu_time)    wall_clock(cpu1)
  | Time for this iteration                    :        1.187 s           1.187 s
  | Charge density update                      :        0.393 s           0.393 s
  | Density mixing                             :        0.005 s           0.006 s
  | Hartree multipole update                   :        0.009 s           0.009 s
  | Hartree multipole summation                :        0.283 s           0.282 s
  | Integration                                :        0.494 s           0.495 s
  | Solution of K.-S. eqns.                    :        0.002 s           0.002 s
  | Total energy evaluation                    :        0.000 s           0.000 s

  Partial memory accounting:
  | Current value for overall tracked memory usage on task 0  :           0.165 MB
  | Peak value for overall tracked memory usage on task 0     :           0.695 MB after allocating gradient_basis_wave
  | Largest tracked array allocation on task 0 so far         :           0.397 MB  when allocating gradient_basis_wave
  Note:  These values currently only include a subset of arrays which are explicitly tracked.
  The "true" memory usage will be greater.
------------------------------------------------------------

------------------------------------------------------------
          Begin self-consistency iteration #    2

  Date     :  20200815, Time     :  004055.725
------------------------------------------------------------
  Evaluating new KS density.
  Integration grid: deviation in total charge (<rho> - N_e) =   7.105427E-15
  Pulay mixing of updated and previous charge densities.

  Evaluating partitioned Hartree potential by multipole expansion.
  | Analytical far-field extrapolation by fixed multipoles:
  | Hartree multipole sum: apparent total charge =  -0.386204E-03
  Summing up the Hartree potential.
  Time summed over all CPUs for potential: real work        0.283 s, elapsed        0.283 s
  | RMS charge density error from multipole expansion :   0.139655E-01

  Integrating Hamiltonian matrix: batch-based integration.
  Time summed over all CPUs for integration: real work        0.493 s, elapsed        0.493 s

  Updating Kohn-Sham eigenvalues and eigenvectors using ELSI and the ELPA eigensolver.
  Finished Cholesky decomposition
  | Time :     0.000 s
  Finished transformation to standard eigenproblem
  | Time :     0.000 s
  Starting LAPACK eigensolver
  Finished solving standard eigenproblem
  | Time :     0.002 s
  Finished back-transformation of eigenvectors
  | Time :     0.000 s

  Obtaining occupation numbers and chemical potential using ELSI.
  | Chemical potential (Fermi level):    -3.32490182eV
  Highest occupied state (VBM) at     -6.48600425 eV
  | Occupation number:      2.00000000

  Lowest unoccupied state (CBM) at    -2.35364775 eV
  | Occupation number:      0.00000000

  Overall HOMO-LUMO gap:      4.13235650 eV.

  Checking to see if s.c.f. parameters should be adjusted.

  Total energy components:
  | Sum of eigenvalues            :        -181.91529800 Ha       -4950.16712026 eV
  | XC energy correction          :         -42.47707100 Ha       -1155.85991132 eV
  | XC potential correction       :          54.61395123 Ha        1486.12122594 eV
  | Free-atom electrostatic energy:        -146.85201337 Ha       -3996.04660050 eV
  | Hartree energy correction     :          -6.86033673 Ha        -186.67926061 eV
  | vdW energy correction         :           0.00000000 Ha           0.00000000 eV
  | Entropy correction            :           0.00000000 Ha           0.00000000 eV
  | ---------------------------
  | Total energy                  :        -323.49076787 Ha       -8802.63166676 eV
  | Total energy, T -> 0          :        -323.49076787 Ha       -8802.63166676 eV  <-- do not rely on this value for anything but (periodic) metals
  | Electronic free energy        :        -323.49076787 Ha       -8802.63166676 eV

  Derived energy quantities:
  | Kinetic energy                :         323.61481139 Ha        8806.00706267 eV
  | Electrostatic energy          :        -604.62850827 Ha      -16452.77881810 eV
  | Energy correction for multipole
  | error in Hartree potential    :           0.02638823 Ha           0.71806032 eV
  | Sum of eigenvalues per atom                           :        -380.78208617 eV
  | Total energy (T->0) per atom                          :        -677.12551283 eV  <-- do not rely on this value for anything but (periodic) metals
  | Electronic free energy per atom                       :        -677.12551283 eV

  Self-consistency convergence accuracy:
  | Change of charge density      :  0.3687E+00
  | Change of sum of eigenvalues  :  0.9621E+02 eV
  | Change of total energy        :  0.2180E+01 eV

  End self-consistency iteration #     2       :  max(cpu_time)    wall_clock(cpu1)
  | Time for this iteration                    :        1.181 s           1.186 s
  | Charge density update                      :        0.387 s           0.391 s
  | Density mixing                             :        0.007 s           0.007 s
  | Hartree multipole update                   :        0.009 s           0.009 s
  | Hartree multipole summation                :        0.282 s           0.283 s
  | Integration                                :        0.493 s           0.493 s
  | Solution of K.-S. eqns.                    :        0.002 s           0.002 s
  | Total energy evaluation                    :        0.000 s           0.001 s

  Partial memory accounting:
  | Current value for overall tracked memory usage on task 0  :           0.166 MB
  | Peak value for overall tracked memory usage on task 0     :           0.695 MB after allocating gradient_basis_wave
  | Largest tracked array allocation on task 0 so far         :           0.397 MB  when allocating gradient_basis_wave
  Note:  These values currently only include a subset of arrays which are explicitly tracked.
  The "true" memory usage will be greater.
------------------------------------------------------------

------------------------------------------------------------
          Begin self-consistency iteration #    3

  Date     :  20200815, Time     :  004056.912
------------------------------------------------------------
  Evaluating new KS density.
  Integration grid: deviation in total charge (<rho> - N_e) =   2.131628E-14
  Pulay mixing of updated and previous charge densities.

  Evaluating partitioned Hartree potential by multipole expansion.
  | Analytical far-field extrapolation by fixed multipoles:
  | Hartree multipole sum: apparent total charge =  -0.479488E-03
  Summing up the Hartree potential.
  Time summed over all CPUs for potential: real work        0.282 s, elapsed        0.282 s
  | RMS charge density error from multipole expansion :   0.218403E-01

  Integrating Hamiltonian matrix: batch-based integration.
  Time summed over all CPUs for integration: real work        0.493 s, elapsed        0.493 s

  Updating Kohn-Sham eigenvalues and eigenvectors using ELSI and the ELPA eigensolver.
  Finished Cholesky decomposition
  | Time :     0.000 s
  Finished transformation to standard eigenproblem
  | Time :     0.000 s
  Starting LAPACK eigensolver
  Finished solving standard eigenproblem
  | Time :     0.001 s
  Finished back-transformation of eigenvectors
  | Time :     0.000 s

  Obtaining occupation numbers and chemical potential using ELSI.
  | Chemical potential (Fermi level):    -2.73291152eV
  Highest occupied state (VBM) at     -5.80170406 eV
  | Occupation number:      2.00000000

  Lowest unoccupied state (CBM) at    -1.69451192 eV
  | Occupation number:      0.00000000

  Overall HOMO-LUMO gap:      4.10719214 eV.

  Total energy components:
  | Sum of eigenvalues            :        -180.60218469 Ha       -4914.43548922 eV
  | XC energy correction          :         -42.62962023 Ha       -1160.01098729 eV
  | XC potential correction       :          54.80867492 Ha        1491.41992708 eV
  | Free-atom electrostatic energy:        -146.85201337 Ha       -3996.04660050 eV
  | Hartree energy correction     :          -8.20229017 Ha        -223.19567159 eV
  | vdW energy correction         :           0.00000000 Ha           0.00000000 eV
  | Entropy correction            :           0.00000000 Ha           0.00000000 eV
  | ---------------------------
  | Total energy                  :        -323.47743355 Ha       -8802.26882152 eV
  | Total energy, T -> 0          :        -323.47743355 Ha       -8802.26882152 eV  <-- do not rely on this value for anything but (periodic) metals
  | Electronic free energy        :        -323.47743355 Ha       -8802.26882152 eV

  Derived energy quantities:
  | Kinetic energy                :         323.23987034 Ha        8795.80439767 eV
  | Electrostatic energy          :        -604.08768366 Ha      -16438.06223190 eV
  | Energy correction for multipole
  | error in Hartree potential    :           0.03696236 Ha           1.00579703 eV
  | Sum of eigenvalues per atom                           :        -378.03349917 eV
  | Total energy (T->0) per atom                          :        -677.09760166 eV  <-- do not rely on this value for anything but (periodic) metals
  | Electronic free energy per atom                       :        -677.09760166 eV

  Self-consistency convergence accuracy:
  | Change of charge density      :  0.2072E+00
  | Change of sum of eigenvalues  :  0.3573E+02 eV
  | Change of total energy        :  0.3628E+00 eV

  End self-consistency iteration #     3       :  max(cpu_time)    wall_clock(cpu1)
  | Time for this iteration                    :        1.181 s           1.181 s
  | Charge density update                      :        0.386 s           0.386 s
  | Density mixing                             :        0.008 s           0.008 s
  | Hartree multipole update                   :        0.009 s           0.009 s
  | Hartree multipole summation                :        0.283 s           0.282 s
  | Integration                                :        0.493 s           0.494 s
  | Solution of K.-S. eqns.                    :        0.002 s           0.002 s
  | Total energy evaluation                    :        0.000 s           0.000 s

  Partial memory accounting:
  | Current value for overall tracked memory usage on task 0  :           0.166 MB
  | Peak value for overall tracked memory usage on task 0     :           0.695 MB after allocating gradient_basis_wave
  | Largest tracked array allocation on task 0 so far         :           0.397 MB  when allocating gradient_basis_wave
  Note:  These values currently only include a subset of arrays which are explicitly tracked.
  The "true" memory usage will be greater.
------------------------------------------------------------

------------------------------------------------------------
          Begin self-consistency iteration #    4

  Date     :  20200815, Time     :  004058.095
------------------------------------------------------------
  Evaluating new KS density.
  Integration grid: deviation in total charge (<rho> - N_e) =   2.131628E-14
  Pulay mixing of updated and previous charge densities.

  Evaluating partitioned Hartree potential by multipole expansion.
  | Analytical far-field extrapolation by fixed multipoles:
  | Hartree multipole sum: apparent total charge =  -0.512188E-03
  Summing up the Hartree potential.
  Time summed over all CPUs for potential: real work        0.282 s, elapsed        0.282 s
  | RMS charge density error from multipole expansion :   0.254277E-01

  Integrating Hamiltonian matrix: batch-based integration.
  Time summed over all CPUs for integration: real work        0.493 s, elapsed        0.493 s

  Updating Kohn-Sham eigenvalues and eigenvectors using ELSI and the ELPA eigensolver.
  Finished Cholesky decomposition
  | Time :     0.000 s
  Finished transformation to standard eigenproblem
  | Time :     0.000 s
  Starting LAPACK eigensolver
  Finished solving standard eigenproblem
  | Time :     0.002 s
  Finished back-transformation of eigenvectors
  | Time :     0.000 s

  Obtaining occupation numbers and chemical potential using ELSI.
  | Chemical potential (Fermi level):    -2.62107565eV
  Highest occupied state (VBM) at     -5.63770974 eV
  | Occupation number:      2.00000000

  Lowest unoccupied state (CBM) at    -1.59034403 eV
  | Occupation number:      0.00000000

  Overall HOMO-LUMO gap:      4.04736571 eV.

  Total energy components:
  | Sum of eigenvalues            :        -180.45632577 Ha       -4910.46646607 eV
  | XC energy correction          :         -42.66849160 Ha       -1161.06873085 eV
  | XC potential correction       :          54.85755767 Ha        1492.75009437 eV
  | Free-atom electrostatic energy:        -146.85201337 Ha       -3996.04660050 eV
  | Hartree energy correction     :          -8.35708776 Ha        -227.40792838 eV
  | vdW energy correction         :           0.00000000 Ha           0.00000000 eV
  | Entropy correction            :           0.00000000 Ha           0.00000000 eV
  | ---------------------------
  | Total energy                  :        -323.47636084 Ha       -8802.23963144 eV
  | Total energy, T -> 0          :        -323.47636084 Ha       -8802.23963144 eV  <-- do not rely on this value for anything but (periodic) metals
  | Electronic free energy        :        -323.47636084 Ha       -8802.23963144 eV

  Derived energy quantities:
  | Kinetic energy                :         322.82976274 Ha        8784.64480204 eV
  | Electrostatic energy          :        -603.63763199 Ha      -16425.81570263 eV
  | Energy correction for multipole
  | error in Hartree potential    :           0.04121127 Ha           1.12141578 eV
  | Sum of eigenvalues per atom                           :        -377.72818970 eV
  | Total energy (T->0) per atom                          :        -677.09535626 eV  <-- do not rely on this value for anything but (periodic) metals
  | Electronic free energy per atom                       :        -677.09535626 eV

  Self-consistency convergence accuracy:
  | Change of charge density      :  0.6980E-01
  | Change of sum of eigenvalues  :  0.3969E+01 eV
  | Change of total energy        :  0.2919E-01 eV

  End self-consistency iteration #     4       :  max(cpu_time)    wall_clock(cpu1)
  | Time for this iteration                    :        1.181 s           1.182 s
  | Charge density update                      :        0.386 s           0.386 s
  | Density mixing                             :        0.010 s           0.010 s
  | Hartree multipole update                   :        0.009 s           0.008 s
  | Hartree multipole summation                :        0.282 s           0.283 s
  | Integration                                :        0.493 s           0.493 s
  | Solution of K.-S. eqns.                    :        0.002 s           0.002 s
  | Total energy evaluation                    :        0.000 s           0.000 s

  Partial memory accounting:
  | Current value for overall tracked memory usage on task 0  :           0.166 MB
  | Peak value for overall tracked memory usage on task 0     :           0.696 MB after allocating gradient_basis_wave
  | Largest tracked array allocation on task 0 so far         :           0.397 MB  when allocating gradient_basis_wave
  Note:  These values currently only include a subset of arrays which are explicitly tracked.
  The "true" memory usage will be greater.
------------------------------------------------------------

------------------------------------------------------------
          Begin self-consistency iteration #    5

  Date     :  20200815, Time     :  004059.280
------------------------------------------------------------
  Evaluating new KS density.
  Integration grid: deviation in total charge (<rho> - N_e) =  -4.263256E-14
  Pulay mixing of updated and previous charge densities.

  Evaluating partitioned Hartree potential by multipole expansion.
  | Analytical far-field extrapolation by fixed multipoles:
  | Hartree multipole sum: apparent total charge =  -0.506198E-03
  Summing up the Hartree potential.
  Time summed over all CPUs for potential: real work        0.283 s, elapsed        0.283 s
  | RMS charge density error from multipole expansion :   0.252071E-01

  Integrating Hamiltonian matrix: batch-based integration.
  Time summed over all CPUs for integration: real work        0.496 s, elapsed        0.496 s

  Updating Kohn-Sham eigenvalues and eigenvectors using ELSI and the ELPA eigensolver.
  Finished Cholesky decomposition
  | Time :     0.000 s
  Finished transformation to standard eigenproblem
  | Time :     0.000 s
  Starting LAPACK eigensolver
  Finished solving standard eigenproblem
  | Time :     0.002 s
  Finished back-transformation of eigenvectors
  | Time :     0.000 s

  Obtaining occupation numbers and chemical potential using ELSI.
  | Chemical potential (Fermi level):    -2.67567484eV
  Highest occupied state (VBM) at     -5.72214436 eV
  | Occupation number:      2.00000000

  Lowest unoccupied state (CBM) at    -1.68795348 eV
  | Occupation number:      0.00000000

  Overall HOMO-LUMO gap:      4.03419088 eV.

  Total energy components:
  | Sum of eigenvalues            :        -180.66201218 Ha       -4916.06347798 eV
  | XC energy correction          :         -42.64308538 Ha       -1160.37739247 eV
  | XC potential correction       :          54.82459572 Ha        1491.85315413 eV
  | Free-atom electrostatic energy:        -146.85201337 Ha       -3996.04660050 eV
  | Hartree energy correction     :          -8.14355950 Ha        -221.59752877 eV
  | vdW energy correction         :           0.00000000 Ha           0.00000000 eV
  | Entropy correction            :           0.00000000 Ha           0.00000000 eV
  | ---------------------------
  | Total energy                  :        -323.47607471 Ha       -8802.23184559 eV
  | Total energy, T -> 0          :        -323.47607471 Ha       -8802.23184559 eV  <-- do not rely on this value for anything but (periodic) metals
  | Electronic free energy        :        -323.47607471 Ha       -8802.23184559 eV

  Derived energy quantities:
  | Kinetic energy                :         322.70451982 Ha        8781.23676863 eV
  | Electrostatic energy          :        -603.53750915 Ha      -16423.09122175 eV
  | Energy correction for multipole
  | error in Hartree potential    :           0.04056090 Ha           1.10371824 eV
  | Sum of eigenvalues per atom                           :        -378.15872908 eV
  | Total energy (T->0) per atom                          :        -677.09475735 eV  <-- do not rely on this value for anything but (periodic) metals
  | Electronic free energy per atom                       :        -677.09475735 eV

  Self-consistency convergence accuracy:
  | Change of charge density      :  0.2059E-01
  | Change of sum of eigenvalues  : -0.5597E+01 eV
  | Change of total energy        :  0.7786E-02 eV

  End self-consistency iteration #     5       :  max(cpu_time)    wall_clock(cpu1)
  | Time for this iteration                    :        1.184 s           1.188 s
  | Charge density update                      :        0.386 s           0.386 s
  | Density mixing                             :        0.011 s           0.011 s
  | Hartree multipole update                   :        0.009 s           0.009 s
  | Hartree multipole summation                :        0.283 s           0.284 s
  | Integration                                :        0.494 s           0.496 s
  | Solution of K.-S. eqns.                    :        0.002 s           0.002 s
  | Total energy evaluation                    :        0.000 s           0.000 s

  Partial memory accounting:
  | Current value for overall tracked memory usage on task 0  :           0.166 MB
  | Peak value for overall tracked memory usage on task 0     :           0.696 MB after allocating gradient_basis_wave
  | Largest tracked array allocation on task 0 so far         :           0.397 MB  when allocating gradient_basis_wave
  Note:  These values currently only include a subset of arrays which are explicitly tracked.
  The "true" memory usage will be greater.
------------------------------------------------------------

------------------------------------------------------------
          Begin self-consistency iteration #    6

  Date     :  20200815, Time     :  004100.469
------------------------------------------------------------
  Evaluating new KS density.
  Integration grid: deviation in total charge (<rho> - N_e) =   5.684342E-14
  Pulay mixing of updated and previous charge densities.

  Evaluating partitioned Hartree potential by multipole expansion.
  | Analytical far-field extrapolation by fixed multipoles:
  | Hartree multipole sum: apparent total charge =  -0.510570E-03
  Summing up the Hartree potential.
  Time summed over all CPUs for potential: real work        0.282 s, elapsed        0.282 s
  | RMS charge density error from multipole expansion :   0.256930E-01

  Integrating Hamiltonian matrix: batch-based integration.
  Time summed over all CPUs for integration: real work        0.494 s, elapsed        0.494 s

  Updating Kohn-Sham eigenvalues and eigenvectors using ELSI and the ELPA eigensolver.
  Finished Cholesky decomposition
  | Time :     0.000 s
  Finished transformation to standard eigenproblem
  | Time :     0.000 s
  Starting LAPACK eigensolver
  Finished solving standard eigenproblem
  | Time :     0.001 s
  Finished back-transformation of eigenvectors
  | Time :     0.000 s

  Obtaining occupation numbers and chemical potential using ELSI.
  | Chemical potential (Fermi level):    -2.66255634eV
  Highest occupied state (VBM) at     -5.67758684 eV
  | Occupation number:      2.00000000

  Lowest unoccupied state (CBM) at    -1.69334176 eV
  | Occupation number:      0.00000000

  Overall HOMO-LUMO gap:      3.98424508 eV.

  Total energy components:
  | Sum of eigenvalues            :        -180.63893791 Ha       -4915.43559507 eV
  | XC energy correction          :         -42.64528299 Ha       -1160.43719257 eV
  | XC potential correction       :          54.82742351 Ha        1491.93010221 eV
  | Free-atom electrostatic energy:        -146.85201337 Ha       -3996.04660050 eV
  | Hartree energy correction     :          -8.16722293 Ha        -222.24144343 eV
  | vdW energy correction         :           0.00000000 Ha           0.00000000 eV
  | Entropy correction            :           0.00000000 Ha           0.00000000 eV
  | ---------------------------
  | Total energy                  :        -323.47603369 Ha       -8802.23072937 eV
  | Total energy, T -> 0          :        -323.47603369 Ha       -8802.23072937 eV  <-- do not rely on this value for anything but (periodic) metals
  | Electronic free energy        :        -323.47603369 Ha       -8802.23072937 eV

  Derived energy quantities:
  | Kinetic energy                :         322.63497143 Ha        8779.34426060 eV
  | Electrostatic energy          :        -603.46572213 Ha      -16421.13779740 eV
  | Energy correction for multipole
  | error in Hartree potential    :           0.04101067 Ha           1.11595715 eV
  | Sum of eigenvalues per atom                           :        -378.11043039 eV
  | Total energy (T->0) per atom                          :        -677.09467149 eV  <-- do not rely on this value for anything but (periodic) metals
  | Electronic free energy per atom                       :        -677.09467149 eV

  Self-consistency convergence accuracy:
  | Change of charge density      :  0.1090E-01
  | Change of sum of eigenvalues  :  0.6279E+00 eV
  | Change of total energy        :  0.1116E-02 eV

  End self-consistency iteration #     6       :  max(cpu_time)    wall_clock(cpu1)
  | Time for this iteration                    :        1.184 s           1.185 s
  | Charge density update                      :        0.385 s           0.385 s
  | Density mixing                             :        0.012 s           0.012 s
  | Hartree multipole update                   :        0.009 s           0.008 s
  | Hartree multipole summation                :        0.282 s           0.283 s
  | Integration                                :        0.494 s           0.494 s
  | Solution of K.-S. eqns.                    :        0.002 s           0.002 s
  | Total energy evaluation                    :        0.000 s           0.000 s

  Partial memory accounting:
  | Current value for overall tracked memory usage on task 0  :           0.166 MB
  | Peak value for overall tracked memory usage on task 0     :           0.696 MB after allocating gradient_basis_wave
  | Largest tracked array allocation on task 0 so far         :           0.397 MB  when allocating gradient_basis_wave
  Note:  These values currently only include a subset of arrays which are explicitly tracked.
  The "true" memory usage will be greater.
------------------------------------------------------------

------------------------------------------------------------
          Begin self-consistency iteration #    7

  Date     :  20200815, Time     :  004101.657
------------------------------------------------------------
  Evaluating new KS density.
  Integration grid: deviation in total charge (<rho> - N_e) =  -7.105427E-15
  Pulay mixing of updated and previous charge densities.

  Evaluating partitioned Hartree potential by multipole expansion.
  | Analytical far-field extrapolation by fixed multipoles:
  | Hartree multipole sum: apparent total charge =  -0.511040E-03
  Summing up the Hartree potential.
  Time summed over all CPUs for potential: real work        0.282 s, elapsed        0.282 s
  | RMS charge density error from multipole expansion :   0.257807E-01

  Integrating Hamiltonian matrix: batch-based integration.
  Time summed over all CPUs for integration: real work        0.493 s, elapsed        0.493 s

  Updating Kohn-Sham eigenvalues and eigenvectors using ELSI and the ELPA eigensolver.
  Finished Cholesky decomposition
  | Time :     0.000 s
  Finished transformation to standard eigenproblem
  | Time :     0.000 s
  Starting LAPACK eigensolver
  Finished solving standard eigenproblem
  | Time :     0.001 s
  Finished back-transformation of eigenvectors
  | Time :     0.000 s

[...]
  |   Hirshfeld dipole moment :      0.05528202
  |   Hirshfeld second moments:      0.01772455      -0.03183406      -0.01903495
  |                                 -0.03183406      -0.02000528       0.00829648
  |                                 -0.01903495       0.00829648      -0.01351614
  ----------------------------------------------------------------------
  | Atom    12: O
  |   Hirshfeld charge        :     -0.15386198
  |   Free atom volume        :     23.61338643
  |   Hirshfeld volume        :     20.70786229
  |   Hirshfeld dipole vector :      0.00324163       0.04433413       0.00372361
  |   Hirshfeld dipole moment :      0.04460816
  |   Hirshfeld second moments:      0.11549993      -0.00700742      -0.00197210
  |                                 -0.00700742       0.03256459       0.00889539
  |                                 -0.00197210       0.00889539       0.04128177
  ----------------------------------------------------------------------
  | Atom    13: H
  |   Hirshfeld charge        :      0.19185566
  |   Free atom volume        :      9.95071624
  |   Hirshfeld volume        :      5.98646653
  |   Hirshfeld dipole vector :     -0.12014015       0.04389950       0.01411313
  |   Hirshfeld dipole moment :      0.12868567
  |   Hirshfeld second moments:      0.12737892       0.00400261      -0.00156146
  |                                  0.00400261       0.11417767       0.00606855
  |                                 -0.00156146       0.00606855       0.12073980
  ----------------------------------------------------------------------


  Total energy components:
  | Sum of eigenvalues            :        -180.64097458 Ha       -4915.49101564 eV
  | XC energy correction          :         -42.64174296 Ha       -1160.34086346 eV
  | XC potential correction       :          54.82292956 Ha        1491.80781574 eV
  | Free-atom electrostatic energy:        -146.85201337 Ha       -3996.04660050 eV
  | Hartree energy correction     :          -8.16420785 Ha        -222.15939895 eV
  | vdW energy correction         :          -0.00331265 Ha          -0.09014187 eV
  | Entropy correction            :           0.00000000 Ha           0.00000000 eV
  | ---------------------------
  | Total energy                  :        -323.47932185 Ha       -8802.32020468 eV
  | Total energy, T -> 0          :        -323.47932185 Ha       -8802.32020468 eV  <-- do not rely on this value for anything but (periodic) metals
  | Electronic free energy        :        -323.47932185 Ha       -8802.32020468 eV

  Derived energy quantities:
  | Kinetic energy                :         322.59807724 Ha        8778.34031882 eV
  | Electrostatic energy          :        -603.43234348 Ha      -16420.22951817 eV
  | Energy correction for multipole
  | error in Hartree potential    :           0.04101075 Ha           1.11595918 eV
  | Sum of eigenvalues per atom                           :        -378.11469351 eV
  | Total energy (T->0) per atom                          :        -677.10155421 eV  <-- do not rely on this value for anything but (periodic) metals
  | Electronic free energy per atom                       :        -677.10155421 eV

  atomic forces [eV/Ang]:
  -----------------------
  atom #    1
   Hellmann-Feynman              :  0.725379E+00  0.609077E-01  0.891054E+00
   Ionic forces                  :  0.000000E+00  0.000000E+00  0.000000E+00
   Multipole                     :  0.115082E+00  0.185443E+00 -0.249688E+00
   Pulay + GGA                   : -0.107927E+01 -0.851018E-01 -0.121811E+01
   Van der Waals                 :  0.570151E-02  0.440362E-02 -0.182600E-02
   ----------------------------------------------------------------
   Total forces(   1)            : -0.233111E+00  0.165652E+00 -0.578568E+00
  atom #    2
   Hellmann-Feynman              :  0.340303E+00  0.376818E-02  0.197160E+00
   Ionic forces                  :  0.000000E+00  0.000000E+00  0.000000E+00
   Multipole                     :  0.170158E+00  0.143684E-01 -0.283294E-02
   Pulay + GGA                   : -0.135096E+00  0.749350E-02  0.270118E-01
   Van der Waals                 :  0.682271E-02 -0.367033E-02 -0.399601E-02
   ----------------------------------------------------------------
   Total forces(   2)            :  0.382188E+00  0.219598E-01  0.217343E+00
  atom #    3
   Hellmann-Feynman              : -0.831312E+01  0.765734E+01  0.763855E-01
   Ionic forces                  :  0.000000E+00  0.000000E+00  0.000000E+00
   Multipole                     : -0.178427E+00  0.210915E+00 -0.112256E+01
   Pulay + GGA                   :  0.855962E+01 -0.752604E+01  0.161195E+01
   Van der Waals                 :  0.680037E-02 -0.144024E-02 -0.118104E-01
   ----------------------------------------------------------------
   Total forces(   3)            :  0.748716E-01  0.340781E+00  0.553960E+00
  atom #    4
   Hellmann-Feynman              :  0.910418E-02 -0.193145E+00 -0.155081E+00
   Ionic forces                  :  0.000000E+00  0.000000E+00  0.000000E+00
   Multipole                     :  0.261208E-01 -0.231023E-02 -0.108534E+00
   Pulay + GGA                   : -0.207729E+00  0.261554E-01  0.131232E+00
   Van der Waals                 : -0.384301E-02 -0.152746E-02  0.575370E-02
   ----------------------------------------------------------------
   Total forces(   4)            : -0.176347E+00 -0.170828E+00 -0.126629E+00
  atom #    5
   Hellmann-Feynman              :  0.216884E+00 -0.248217E+00 -0.271728E+00
   Ionic forces                  :  0.000000E+00  0.000000E+00  0.000000E+00
   Multipole                     : -0.339690E-01 -0.721242E-01 -0.791643E-01
   Pulay + GGA                   :  0.346572E-01  0.199959E+00  0.680098E-01
   Van der Waals                 : -0.618422E-03  0.434403E-02 -0.383106E-03
   ----------------------------------------------------------------
   Total forces(   5)            :  0.216954E+00 -0.116038E+00 -0.283266E+00
  atom #    6
   Hellmann-Feynman              :  0.123440E+00 -0.549206E+00  0.609343E+00
   Ionic forces                  :  0.000000E+00  0.000000E+00  0.000000E+00
   Multipole                     : -0.121535E+00  0.602232E+00  0.226029E+00
   Pulay + GGA                   :  0.176412E+00 -0.401132E+00 -0.610971E+00
   Van der Waals                 : -0.541797E-02  0.258024E-02 -0.404454E-02
   ----------------------------------------------------------------
   Total forces(   6)            :  0.172900E+00 -0.345526E+00  0.220356E+00
  atom #    7
   Hellmann-Feynman              : -0.220086E+00 -0.452929E-01 -0.656610E-01
   Ionic forces                  :  0.000000E+00  0.000000E+00  0.000000E+00
   Multipole                     : -0.118374E+00  0.506956E-01  0.243214E-01
   Pulay + GGA                   :  0.117592E+00  0.310385E-01 -0.258215E-01
   Van der Waals                 : -0.159961E-02 -0.122883E-02  0.241072E-02
   ----------------------------------------------------------------
   Total forces(   7)            : -0.222468E+00  0.352125E-01 -0.647504E-01
  atom #    8
   Hellmann-Feynman              :  0.940572E-01 -0.256831E-01  0.174372E+00
   Ionic forces                  :  0.000000E+00  0.000000E+00  0.000000E+00
   Multipole                     :  0.140991E-01  0.631458E-01  0.124420E+00
   Pulay + GGA                   : -0.359212E-01 -0.352834E-01 -0.855559E-01
   Van der Waals                 : -0.283803E-02  0.112075E-01  0.144242E-02
   ----------------------------------------------------------------
   Total forces(   8)            :  0.693971E-01  0.133868E-01  0.214679E+00
  atom #    9
   Hellmann-Feynman              :  0.762808E-01  0.307807E-01 -0.182553E+00
   Ionic forces                  :  0.000000E+00  0.000000E+00  0.000000E+00
   Multipole                     :  0.151505E-01  0.128338E+00 -0.144285E-01
   Pulay + GGA                   : -0.617121E-01 -0.937590E-01  0.411142E-01
   Van der Waals                 : -0.183055E-02  0.205321E-02  0.263361E-02
   ----------------------------------------------------------------
   Total forces(   9)            :  0.278886E-01  0.674129E-01 -0.153234E+00
  atom #   10
   Hellmann-Feynman              :  0.343075E+01  0.552615E+01  0.230446E+01
   Ionic forces                  :  0.000000E+00  0.000000E+00  0.000000E+00
   Multipole                     :  0.163444E+00 -0.450325E-01  0.248476E+00
   Pulay + GGA                   : -0.109747E+01 -0.336042E+01 -0.526926E+00
   Van der Waals                 :  0.367576E-02 -0.115658E-01 -0.131386E-02
   ----------------------------------------------------------------
   Total forces(  10)            :  0.250040E+01  0.210913E+01  0.202470E+01
  atom #   11
   Hellmann-Feynman              :  0.379262E+01 -0.223856E+01  0.137512E+02
   Ionic forces                  :  0.000000E+00  0.000000E+00  0.000000E+00
   Multipole                     :  0.123365E+00 -0.638795E+00  0.733692E+00
   Pulay + GGA                   : -0.309889E+01  0.353886E+01 -0.136232E+02
   Van der Waals                 : -0.649226E-03 -0.119497E-01  0.325551E-02
   ----------------------------------------------------------------
   Total forces(  11)            :  0.816440E+00  0.649548E+00  0.864903E+00
  atom #   12
   Hellmann-Feynman              :  0.148682E+01 -0.126534E+02 -0.903379E+01
   Ionic forces                  :  0.000000E+00  0.000000E+00  0.000000E+00
   Multipole                     : -0.653593E+00 -0.152730E+01 -0.344353E+00
   Pulay + GGA                   : -0.350650E+01  0.120370E+02  0.707245E+01
   Van der Waals                 :  0.154498E-02  0.714381E-02  0.325817E-02
   ----------------------------------------------------------------
   Total forces(  12)            : -0.267173E+01 -0.213654E+01 -0.230243E+01
  atom #   13
   Hellmann-Feynman              : -0.125092E+01 -0.422199E+00 -0.566159E+00
   Ionic forces                  :  0.000000E+00  0.000000E+00  0.000000E+00
   Multipole                     : -0.553830E-01  0.127178E-01  0.155111E-01
   Pulay + GGA                   :  0.352503E+00 -0.224957E+00 -0.444465E-01
   Van der Waals                 : -0.774851E-02 -0.350022E-03  0.461979E-02
   ----------------------------------------------------------------
   Total forces(  13)            : -0.961548E+00 -0.634789E+00 -0.590475E+00

  Timings for VdW correction (Tkatchenko-Scheffler 2009 or later):
  | CPU time:        0.090 s, Wall clock time:        0.090 s.
  Removing unitary transformations (pure translations, rotations) from forces on atoms.
  Atomic forces before filtering:
  | Net force on center of mass :  -0.416571E-02 -0.638414E-03 -0.341406E-02 eV/A
  | Net torque on center of mass:  -0.724042E-02  0.154052E-02 -0.119966E-01 eV
  Atomic forces after filtering:
  | Net force on center of mass :   0.178406E-15  0.624421E-15  0.267609E-15 eV/A
  | Net torque on center of mass:   0.708063E-16 -0.944085E-15  0.377634E-15 eV

  Energy and forces in a compact form:
  | Total energy uncorrected      :         -0.880232020467932E+04 eV
  | Total energy corrected        :         -0.880232020467932E+04 eV  <-- do not rely on this value for anything but (periodic) metals
  | Electronic free energy        :         -0.880232020467932E+04 eV
  Total atomic forces (unitary forces cleaned) [eV/Ang]:
  |   1         -0.232834348603127E+00          0.165899756460532E+00         -0.578278983447498E+00
  |   2          0.382464740293386E+00          0.226427694262009E-01          0.217647951108173E+00
  |   3          0.751685028831793E-01          0.341086501472937E+00          0.554242707940931E+00
  |   4         -0.176117033646564E+00         -0.170097318451826E+00         -0.126301988397877E+00
  |   5          0.217618140864510E+00         -0.115853837309377E+00         -0.283150564915899E+00
  |   6          0.172662647515540E+00         -0.345605198381303E+00          0.220861173497923E+00
  |   7         -0.222716024653093E+00          0.346952197997988E-01         -0.642560935540668E-01
  |   8          0.691406061235354E-01          0.132695538216300E-01          0.215191760214669E+00
  |   9          0.273007126186500E-01          0.675672166051446E-01         -0.152564829675615E+00
  |  10          0.250117679875592E+01          0.210908999366601E+01          0.202475597872292E+01
  |  11          0.817313132649374E+00          0.649421436551497E+00          0.864913541045298E+00
  |  12         -0.267059931380167E+01         -0.213674635565025E+01         -0.230253743742089E+01
  |  13         -0.960578560999644E+00         -0.635369738010996E+00         -0.590523215118070E+00

  ------------------------------------ 
  Start decomposition of the XC Energy 
  ------------------------------------ 
  X and C from original XC functional choice 
  Hartree-Fock Energy :          0.000000000 Ha              0.000000000 eV
  X Energy            :        -41.040650375 Ha          -1116.772917482 eV
  C Energy            :         -1.601092586 Ha            -43.567945977 eV
  Total XC Energy     :        -42.641742961 Ha          -1160.340863460 eV
  ------------------------------------ 
  LDA X and C from self-consistent density 
  X Energy LDA        :        -37.260023545 Ha          -1013.896827169 eV
  C Energy LDA        :         -3.138829241 Ha            -85.411889361 eV
  ------------------------------------ 
  End decomposition of the XC Energy 
  ------------------------------------ 

------------------------------------------------------------

------------------------------------------------------------------------------
  Final output of selected total energy values:

  The following output summarizes some interesting total energy values
  at the end of a run (AFTER all relaxation, molecular dynamics, etc.).

  | Total energy of the DFT / Hartree-Fock s.c.f. calculation      :          -8802.320204679 eV
  | Final zero-broadening corrected energy (caution - metals only) :          -8802.320204679 eV
  | For reference only, the value of 1 Hartree used in FHI-aims is :             27.211384500 eV

  Before relying on these values, please be sure to understand exactly which
  total energy value is referred to by a given number. Different objects may
  all carry the same name 'total energy'. Definitions:

  Total energy of the DFT / Hartree-Fock s.c.f. calculation:
  | Note that this energy does not include ANY quantities calculated after the
  | s.c.f. cycle, in particular not ANY RPA, MP2, etc. many-body perturbation terms.

  Final zero-broadening corrected energy:
  | For metallic systems only, a broadening of the occupation numbers at the Fermi
  | level can be extrapolated back to zero broadening by an electron-gas inspired
  | formula. For all systems that are not real metals, this value can be
  | meaningless and should be avoided.

------------------------------------------------------------------------------
  Methods described in the following list of references were used in this FHI-aims run.
  If you publish the results, please make sure to cite these reference if they apply.
  FHI-aims is an academic code, and for our developers (often, Ph.D. students
  and postdocs), scientific credit in the community is essential.
  Thank you for helping us!

  For any use of FHI-aims, please cite:

    Volker Blum, Ralf Gehrke, Felix Hanke, Paula Havu, Ville Havu,
    Xinguo Ren, Karsten Reuter, and Matthias Scheffler
    'Ab initio molecular simulations with numeric atom-centered orbitals'
    Computer Physics Communications 180, 2175-2196 (2009)
    http://dx.doi.org/10.1016/j.cpc.2009.06.022


  The scalable eigensolver library ELPA was used in your run.
  ELPA is essential especially for large systems on hundreds or thousands of CPUs.
  For ELPA, please cite:

    Andreas Marek, Volker Blum, Rainer Johanni, Ville Havu, Bruno Lang,
    Thomas Auckenthaler, Alexander Heinecke, Hans-Joachim Bungartz, and Hermann Lederer,
    'The ELPA Library - Scalable Parallel Eigenvalue Solutions
    for Electronic Structure Theory and Computational Science'
    The Journal of Physics: Condensed Matter 26, 213201 (2014).
    http://dx.doi.org/10.1088/0953-8984/26/21/213201


  The ELSI infrastructure was used in your run to solve the Kohn-Sham electronic structure.
  Please check out http://elsi-interchange.org to learn more.
  If scalability is important for your project, please acknowledge ELSI by citing:

    V. W-z. Yu, F. Corsetti, A. Garcia, W. P. Huhn, M. Jacquelin, W. Jia,
    B. Lange, L. Lin, J. Lu, W. Mi, A. Seifitokaldani, A. Vazquez-Mayagoitia,
    C. Yang, H. Yang, and V. Blum
    'ELSI: A unified software interface for Kohn-Sham electronic structure solvers'
    Computer Physics Communications 222, 267-285 (2018).
    http://dx.doi.org/10.1016/j.cpc.2017.09.007


  For the real-space grid partitioning and parallelization used in this calculation, please cite:

    Ville Havu, Volker Blum, Paula Havu, and Matthias Scheffler,
    'Efficient O(N) integration for all-electron electronic structure calculation'
    'using numerically tabulated basis functions'
    Journal of Computational Physics 228, 8367-8379 (2009).
    http://dx.doi.org/10.1016/j.jcp.2009.08.008

  Of course, there are many other important community references, e.g., those cited in the
  above references. Our list is limited to references that describe implementations in the
  FHI-aims code. The reason is purely practical (length of this list) - please credit others as well.

------------------------------------------------------------
          Leaving FHI-aims.
          Date     :  20200815, Time     :  004115.938

          Computational steps:
          | Number of self-consistency cycles          :           16
          | Number of SCF (re)initializations          :            1

          Detailed time accounting                     :  max(cpu_time)    wall_clock(cpu1)
          | Total time                                 :       22.647 s          22.724 s
          | Preparation time                           :        0.146 s           0.148 s
          | Boundary condition initalization           :        0.000 s           0.000 s
          | Grid partitioning                          :        0.112 s           0.112 s
          | Preloading free-atom quantities on grid    :        0.002 s           0.002 s
          | Free-atom superposition energy             :        0.085 s           0.085 s
          | Total time for integrations                :        8.604 s           8.617 s
          | Total time for solution of K.-S. equations :        0.036 s           0.036 s
          | Total time for density & force components  :        7.130 s           7.153 s
          | Total time for mixing                      :        0.214 s           0.216 s
          | Total time for Hartree multipole update    :        0.140 s           0.140 s
          | Total time for Hartree multipole sum       :        5.780 s           5.784 s
          | Total time for total energy evaluation     :        0.003 s           0.003 s
          | Total time for vdW correction              :        0.090 s           0.090 s

          Partial memory accounting:
          | Residual value for overall tracked memory usage across tasks :           0.000 MB (should be 0.000 MB)
          | Peak values for overall tracked memory usage (after allocating hessian_basis_wave):
          |   Minimum:        1.622 MB (on task 1)
          |   Maximum:        1.622 MB (on task 1)
          |   Average:        1.622 MB
          | Largest tracked array allocation (hessian_basis_wave):
          |   Minimum:        0.794 MB (on task 1)
          |   Maximum:        0.794 MB (on task 1)
          |   Average:        0.794 MB
          Note:  These values currently only include a subset of arrays which are explicitly tracked.
          The "true" memory usage will be greater.

          Have a nice day.
------------------------------------------------------------
