  MPI-parallelism will be employed.
------------------------------------------------------------
          Invoking FHI-aims ...
          Version 171221_1
          Compiled on 2019/09/09 at 14:39:39 on host puhti-login2.bullx.

          When using FHI-aims, please cite the following reference:

          Volker Blum, Ralf Gehrke, Felix Hanke, Paula Havu,
          Ville Havu, Xinguo Ren, Karsten Reuter, and Matthias Scheffler,
          'Ab Initio Molecular Simulations with Numeric Atom-Centered Orbitals',
          Computer Physics Communications 180, 2175-2196 (2009)

          For any questions about FHI-aims, please visit the aimsclub website
          with its forums and wiki. Contributions to both the forums and the
          wiki are warmly encouraged - they are for you, and everyone is welcome there.

------------------------------------------------------------



  Date     :  20200815, Time     :  004524.448
  Time zero on CPU 1             :   0.115400000000000E-01  s.
  Internal wall clock time zero  :           366684324.448  s.

  FHI-aims created a unique identifier for this run for later identification
  aims_uuid : F014BD1D-C47A-4314-A17B-11C56CE91007

  Using        1 parallel tasks.
  Task        0 on host r16c29.bullx reporting.

  Performing system and environment tests:
  | Environment variable OMP_NUM_THREADS correctly set to 1.
  | Stacksize not measured: no C compiler
  | Checking for scalapack...
  | Testing pdtran()...
  | All pdtran() tests passed.

  Obtaining array dimensions for all initial allocations:
  
  -----------------------------------------------------------------------
  Parsing control.in (first pass over file, find array dimensions only).
  The contents of control.in will be repeated verbatim below
  unless switched off by setting 'verbatim_writeout .false.' .
  in the first line of control.in .
  -----------------------------------------------------------------------
  
  #########################################################################################
  #
  #  Volker Blum, FHI 2009 : Test run input file control.in for simple H2O
  #
  #########################################################################################
  #
  #  Physical model
  #
    xc                 pbe
    vdw_correction_hirshfeld
    spin               none
    relativistic       none
    charge             0.
  #
  #  SCF convergence
  #
    occupation_type    gaussian 0.01
    mixer              pulay
      n_max_pulay        10
      charge_mix_param   0.2
    sc_accuracy_rho    1E-5
    sc_accuracy_eev    1E-3
    sc_accuracy_etot   1E-6
    sc_accuracy_forces 1E-4
    sc_iter_limit      100
  #
  #  Relaxation
  #
  #  relax_geometry   bfgs 1.e-3
  #
  ################################################################################
  #
  #  FHI-aims code project
  #  VB, Fritz-Haber Institut, 2009
  #
  #  Suggested "light" defaults for H atom (to be pasted into control.in file)
  #  Be sure to double-check any results obtained with these settings for post-processing,
  #  e.g., with the "tight" defaults and larger basis sets.
  #
  ################################################################################
    species        H
  #     global species definitions
      nucleus             1
      mass                1.00794
  #
      l_hartree           4
  #
      cut_pot             3.5  1.5  1.0
      basis_dep_cutoff    1e-4
  #
      radial_base         24 5.0
      radial_multiplier   1
      angular_grids       specified
        division   0.2421   50
        division   0.3822  110
        division   0.4799  194
        division   0.5341  302
  #      division   0.5626  434
  #      division   0.5922  590
  #      division   0.6542  770
  #      division   0.6868 1202
  #      outer_grid  770
        outer_grid  302
  ################################################################################
  #
  #  Definition of "minimal" basis
  #
  ################################################################################
  #     valence basis states
      valence      1  s   1.
  #     ion occupancy
      ion_occ      1  s   0.5
  ################################################################################
  #
  #  Suggested additional basis functions. For production calculations,
  #  uncomment them one after another (the most important basis functions are
  #  listed first).
  #
  #  Basis constructed for dimers: 0.5 A, 0.7 A, 1.0 A, 1.5 A, 2.5 A
  #
  ################################################################################
  #  "First tier" - improvements: -1014.90 meV to -62.69 meV
       hydro 2 s 2.1
       hydro 2 p 3.5
  #  "Second tier" - improvements: -12.89 meV to -1.83 meV
  #     hydro 1 s 0.85
  #     hydro 2 p 3.7
  #     hydro 2 s 1.2
  #     hydro 3 d 7
  #  "Third tier" - improvements: -0.25 meV to -0.12 meV
  #     hydro 4 f 11.2
  #     hydro 3 p 4.8
  #     hydro 4 d 9
  #     hydro 3 s 3.2
  ################################################################################
  #
  #  FHI-aims code project
  #  VB, Fritz-Haber Institut, 2009
  #
  #  Suggested "light" defaults for C atom (to be pasted into control.in file)
  #  Be sure to double-check any results obtained with these settings for post-processing,
  #  e.g., with the "tight" defaults and larger basis sets.
  #
  ################################################################################
    species        C
  #     global species definitions
      nucleus             6
      mass                12.0107
  #
      l_hartree           4
  #
      cut_pot             3.5  1.5  1.0
      basis_dep_cutoff    1e-4
  #
      radial_base         34 5.0
      radial_multiplier   1
      angular_grids specified
        division   0.3326   50
        division   0.5710  110
        division   0.7727  194
        division   0.8772  302
  #      division   0.9334  434
  #      division   0.9625  590
  #      division   0.9924  770
  #      division   1.0230  974
  #      division   1.4589 1202
  #     outer_grid  974
       outer_grid 302
  ################################################################################
  #
  #  Definition of "minimal" basis
  #
  ################################################################################
  #     valence basis states
      valence      2  s   2.
      valence      2  p   2.
  #     ion occupancy
      ion_occ      2  s   1.
      ion_occ      2  p   1.
  ################################################################################
  #
  #  Suggested additional basis functions. For production calculations,
  #  uncomment them one after another (the most important basis functions are
  #  listed first).
  #
  #  Constructed for dimers: 1.0 A, 1.25 A, 1.5 A, 2.0 A, 3.0 A
  #
  ################################################################################
  #  "First tier" - improvements: -1214.57 meV to -155.61 meV
       hydro 2 p 1.7
       hydro 3 d 6
       hydro 2 s 4.9
  #  "Second tier" - improvements: -67.75 meV to -5.23 meV
  #     hydro 4 f 9.8
  #     hydro 3 p 5.2
  #     hydro 3 s 4.3
  #     hydro 5 g 14.4
  #     hydro 3 d 6.2
  #  "Third tier" - improvements: -2.43 meV to -0.60 meV
  #     hydro 2 p 5.6
  #     hydro 2 s 1.4
  #     hydro 3 d 4.9
  #     hydro 4 f 11.2
  #  "Fourth tier" - improvements: -0.39 meV to -0.18 meV
  #     hydro 2 p 2.1
  #     hydro 5 g 16.4
  #     hydro 4 d 13.2
  #     hydro 3 s 13.6
  #     hydro 4 f 17.6
  #  Further basis functions - improvements: -0.08 meV and below
  #     hydro 3 s 2
  #     hydro 3 p 6
  #     hydro 4 d 20
  ################################################################################
  #
  #  FHI-aims code project
  #  VB, Fritz-Haber Institut, 2009
  #
  #  Suggested "light" defaults for N atom (to be pasted into control.in file)
  #  Be sure to double-check any results obtained with these settings for post-processing,
  #  e.g., with the "tight" defaults and larger basis sets.
  #
  ################################################################################
    species        N
  #     global species definitions
      nucleus             7
      mass                14.0067
  #
      l_hartree           4
  #
      cut_pot             3.5  1.5  1.0
      basis_dep_cutoff    1e-4
  #
      radial_base         35 5.0
      radial_multiplier   1
      angular_grids       specified
        division   0.2599   50
        division   0.4601  110
        division   0.5885  194
        division   0.6503  302
  #      division   0.6939  434
  #      division   0.7396  590
  #      division   0.7632  770
  #      division   0.8122  974
  #      division   1.1604 1202
  #      outer_grid  974
        outer_grid  302
  ################################################################################
  #
  #  Definition of "minimal" basis
  #
  ################################################################################
  #     valence basis states
      valence      2  s   2.
      valence      2  p   3.
  #     ion occupancy
      ion_occ      2  s   1.
      ion_occ      2  p   2.
  ################################################################################
  #
  #  Suggested additional basis functions. For production calculations,
  #  uncomment them one after another (the most important basis functions are
  #  listed first).
  #
  #  Constructed for dimers: 1.0 A, 1.1 A, 1.5 A, 2.0 A, 3.0 A
  #
  ################################################################################
  #  "First tier" - improvements: -1193.42 meV to -220.60 meV
       hydro 2 p 1.8
       hydro 3 d 6.8
       hydro 3 s 5.8
  #  "Second tier" - improvements: -80.21 meV to -6.86 meV
  #     hydro 4 f 10.8
  #     hydro 3 p 5.8
  #     hydro 1 s 0.8
  #     hydro 5 g 16
  #     hydro 3 d 4.9
  #  "Third tier" - improvements: -4.29 meV to -0.53 meV
  #     hydro 3 s 16
  #     ionic 2 p auto
  #     hydro 3 d 6.6
  #     hydro 4 f 11.6
  #  "Fourth tier" - improvements: -0.75 meV to -0.25 meV
  #     hydro 2 p 4.5
  #     hydro 2 s 2.4
  #     hydro 5 g 14.4
  #     hydro 4 d 14.4
  #     hydro 4 f 16.8
  # Further basis functions - -0.21 meV and below
  #     hydro 3 p 14.8
  #     hydro 3 s 4.4
  #     hydro 3 d 19.6
  #     hydro 5 g 12.8
  ################################################################################
  #
  #  FHI-aims code project
  #  VB, Fritz-Haber Institut, 2009
  #
  #  Suggested "light" defaults for O atom (to be pasted into control.in file)
  #  Be sure to double-check any results obtained with these settings for post-processing,
  #  e.g., with the "tight" defaults and larger basis sets.
  #
  ################################################################################
    species        O
  #     global species definitions
      nucleus             8
      mass                15.9994
  #
      l_hartree           4
  #
      cut_pot             3.5  1.5  1.0
      basis_dep_cutoff    1e-4
  #
      radial_base         36 5.0
      radial_multiplier   1
       angular_grids specified
        division   0.2659   50
        division   0.4451  110
        division   0.6052  194
        division   0.7543  302
  #      division   0.8014  434
  #      division   0.8507  590
  #      division   0.8762  770
  #      division   0.9023  974
  #      division   1.2339 1202
  #      outer_grid 974
        outer_grid 302
  ################################################################################
  #
  #  Definition of "minimal" basis
  #
  ################################################################################
  #     valence basis states
      valence      2  s   2.
      valence      2  p   4.
  #     ion occupancy
      ion_occ      2  s   1.
      ion_occ      2  p   3.
  ################################################################################
  #
  #  Suggested additional basis functions. For production calculations,
  #  uncomment them one after another (the most important basis functions are
  #  listed first).
  #
  #  Constructed for dimers: 1.0 A, 1.208 A, 1.5 A, 2.0 A, 3.0 A
  #
  ################################################################################
  #  "First tier" - improvements: -699.05 meV to -159.38 meV
       hydro 2 p 1.8
       hydro 3 d 7.6
       hydro 3 s 6.4
  #  "Second tier" - improvements: -49.91 meV to -5.39 meV
  #     hydro 4 f 11.6
  #     hydro 3 p 6.2
  #     hydro 3 d 5.6
  #     hydro 5 g 17.6
  #     hydro 1 s 0.75
  #  "Third tier" - improvements: -2.83 meV to -0.50 meV
  #     ionic 2 p auto
  #     hydro 4 f 10.8
  #     hydro 4 d 4.7
  #     hydro 2 s 6.8
  #  "Fourth tier" - improvements: -0.40 meV to -0.12 meV
  #     hydro 3 p 5
  #     hydro 3 s 3.3
  #     hydro 5 g 15.6
  #     hydro 4 f 17.6
  #     hydro 4 d 14
  # Further basis functions - -0.08 meV and below
  #     hydro 3 s 2.1
  #     hydro 4 d 11.6
  #     hydro 3 p 16
  #     hydro 2 s 17.2
  
  -----------------------------------------------------------------------
  Completed first pass over input file control.in .
  -----------------------------------------------------------------------
  
  
  -----------------------------------------------------------------------
  Parsing geometry.in (first pass over file, find array dimensions only).
  The contents of geometry.in will be repeated verbatim below
  unless switched off by setting 'verbatim_writeout .false.' .
  in the first line of geometry.in .
  -----------------------------------------------------------------------
  
  atom  0.00000 0.00000 0.00000 C
  atom  1.09300 0.00000 0.00000 H
  atom  -0.47961 0.00000 -1.41207 N
  atom  -0.60974 -0.96652 -1.71331 H
  atom  -1.36249 0.50456 -1.45740 H
  atom  -0.49584 1.26211 0.72868 C
  atom  -1.58789 1.28919 0.74431 H
  atom  -0.13407 1.27425 1.75947 H
  atom  -0.13407 2.16087 0.22380 H
  atom  -0.39425 -1.28861 0.74398 C
  atom  -0.10189 -1.56493 1.88303 O
  atom  -1.10210 -2.13717 0.06896 O
  atom  -1.84018 -2.23511 0.69396 H
  
  -----------------------------------------------------------------------
  Completed first pass over input file geometry.in .
  -----------------------------------------------------------------------
  

  Basic array size parameters:
  | Number of species                 :        4
  | Number of atoms                   :       13
  | Max. basis fn. angular momentum   :        2
  | Max. atomic/ionic basis occupied n:        2
  | Max. number of basis fn. types    :        2
  | Max. radial fns per species/type  :        3
  | Max. logarithmic grid size        :     1301
  | Max. radial integration grid size :       36
  | Max. angular integration grid size:      302
  | Max. angular grid division number :        8
  | Radial grid for Hartree potential :     1301
  | Number of spin channels           :        1

------------------------------------------------------------
          Reading file control.in.
------------------------------------------------------------
  XC: Using PBE gradient-corrected functionals.
  Spin treatment: No spin polarisation.
  Non-relativistic treatment of kinetic energy.
  Charge =   0.000000E+00: Neutral system requested explicitly.
  Occupation type: Gaussian broadening, width =   0.100000E-01 eV.
  Using pulay charge density mixing.
  Pulay mixing - number of memorized iterations:   10
  Charge density mixing - mixing parameter:     0.2000
  Convergence accuracy of self-consistent charge density:  0.1000E-04
  Convergence accuracy of sum of eigenvalues:  0.1000E-02
  Convergence accuracy of total energy:  0.1000E-05
  Convergence accuracy of forces:  0.1000E-03
  Maximum number of s.-c. iterations  :   100
 
  Reading configuration options for species H                   .
  | Found nuclear charge :   1.0000
  | Found atomic mass :    1.00794000000000      amu
  | Found l_max for Hartree potential  :   4
  | Found cutoff potl. onset [A], width [A], scale factor :    3.50000    1.50000    1.00000
  | Threshold for basis-dependent cutoff potential is   0.100000E-03
  | Found data for basic radial integration grid :    24 points, outermost radius =    5.000 A
  | Found multiplier for basic radial grid :   1
  | Found angular grid specification: user-specified.
  | Specified grid contains     5 separate shells.
  | Check grid settings after all constraints further below.
  | Found free-atom valence shell :  1 s   1.000
  | No ionic wave fns used. Skipping ion_occ.
  | Found hydrogenic basis function :  2 s   2.100
  | Found hydrogenic basis function :  2 p   3.500
  Species H                   : Missing cutoff potential type.
  Defaulting to exp(1/x)/(1-x)^2 type cutoff potential.
  Species H : No 'logarithmic' tag. Using default grid for free atom:
  | Default logarithmic grid data [bohr] : 0.1000E-03 0.1000E+03 0.1012E+01
  Species H : On-site basis accuracy parameter (for Gram-Schmidt orthonormalisation) not specified.
  Using default value basis_acc =  0.1000000E-03.
  Species H                   : Using default innermost maximum threshold i_radial=  2 for radial functions.
  Species H                   : Default cutoff onset for free atom density etc. : 0.35000000E+01 AA.
  Species H                   : Basic radial grid will be enhanced according to radial_multiplier =   1, to contain    24 grid points.
 
  Reading configuration options for species C                   .
  | Found nuclear charge :   6.0000
  | Found atomic mass :    12.0107000000000      amu
  | Found l_max for Hartree potential  :   4
  | Found cutoff potl. onset [A], width [A], scale factor :    3.50000    1.50000    1.00000
  | Threshold for basis-dependent cutoff potential is   0.100000E-03
  | Found data for basic radial integration grid :    34 points, outermost radius =    5.000 A
  | Found multiplier for basic radial grid :   1
  | Found angular grid specification: user-specified.
  | Specified grid contains     5 separate shells.
  | Check grid settings after all constraints further below.
  | Found free-atom valence shell :  2 s   2.000
  | Found free-atom valence shell :  2 p   2.000
  | No ionic wave fns used. Skipping ion_occ.
  | No ionic wave fns used. Skipping ion_occ.
  | Found hydrogenic basis function :  2 p   1.700
  | Found hydrogenic basis function :  3 d   6.000
  | Found hydrogenic basis function :  2 s   4.900
  Species C                   : Missing cutoff potential type.
  Defaulting to exp(1/x)/(1-x)^2 type cutoff potential.
  Species C : No 'logarithmic' tag. Using default grid for free atom:
  | Default logarithmic grid data [bohr] : 0.1000E-03 0.1000E+03 0.1012E+01
  Species C : On-site basis accuracy parameter (for Gram-Schmidt orthonormalisation) not specified.
  Using default value basis_acc =  0.1000000E-03.
  Species C                   : Using default innermost maximum threshold i_radial=  2 for radial functions.
  Species C                   : Default cutoff onset for free atom density etc. : 0.35000000E+01 AA.
  Species C                   : Basic radial grid will be enhanced according to radial_multiplier =   1, to contain    34 grid points.
 
  Reading configuration options for species N                   .
  | Found nuclear charge :   7.0000
  | Found atomic mass :    14.0067000000000      amu
  | Found l_max for Hartree potential  :   4
  | Found cutoff potl. onset [A], width [A], scale factor :    3.50000    1.50000    1.00000
  | Threshold for basis-dependent cutoff potential is   0.100000E-03
  | Found data for basic radial integration grid :    35 points, outermost radius =    5.000 A
  | Found multiplier for basic radial grid :   1
  | Found angular grid specification: user-specified.
  | Specified grid contains     5 separate shells.
  | Check grid settings after all constraints further below.
  | Found free-atom valence shell :  2 s   2.000
  | Found free-atom valence shell :  2 p   3.000
  | No ionic wave fns used. Skipping ion_occ.
  | No ionic wave fns used. Skipping ion_occ.
  | Found hydrogenic basis function :  2 p   1.800
  | Found hydrogenic basis function :  3 d   6.800
  | Found hydrogenic basis function :  3 s   5.800
  Species N                   : Missing cutoff potential type.
  Defaulting to exp(1/x)/(1-x)^2 type cutoff potential.
  Species N : No 'logarithmic' tag. Using default grid for free atom:
  | Default logarithmic grid data [bohr] : 0.1000E-03 0.1000E+03 0.1012E+01
  Species N : On-site basis accuracy parameter (for Gram-Schmidt orthonormalisation) not specified.
  Using default value basis_acc =  0.1000000E-03.
  Species N                   : Using default innermost maximum threshold i_radial=  2 for radial functions.
  Species N                   : Default cutoff onset for free atom density etc. : 0.35000000E+01 AA.
  Species N                   : Basic radial grid will be enhanced according to radial_multiplier =   1, to contain    35 grid points.
 
  Reading configuration options for species O                   .
  | Found nuclear charge :   8.0000
  | Found atomic mass :    15.9994000000000      amu
  | Found l_max for Hartree potential  :   4
  | Found cutoff potl. onset [A], width [A], scale factor :    3.50000    1.50000    1.00000
  | Threshold for basis-dependent cutoff potential is   0.100000E-03
  | Found data for basic radial integration grid :    36 points, outermost radius =    5.000 A
  | Found multiplier for basic radial grid :   1
  | Found angular grid specification: user-specified.
  | Specified grid contains     5 separate shells.
  | Check grid settings after all constraints further below.
  | Found free-atom valence shell :  2 s   2.000
  | Found free-atom valence shell :  2 p   4.000
  | No ionic wave fns used. Skipping ion_occ.
  | No ionic wave fns used. Skipping ion_occ.
  | Found hydrogenic basis function :  2 p   1.800
  | Found hydrogenic basis function :  3 d   7.600
  | Found hydrogenic basis function :  3 s   6.400
  Species O                   : Missing cutoff potential type.
  Defaulting to exp(1/x)/(1-x)^2 type cutoff potential.
  Species O : No 'logarithmic' tag. Using default grid for free atom:
  | Default logarithmic grid data [bohr] : 0.1000E-03 0.1000E+03 0.1012E+01
  Species O : On-site basis accuracy parameter (for Gram-Schmidt orthonormalisation) not specified.
  Using default value basis_acc =  0.1000000E-03.
  Species O                   : Using default innermost maximum threshold i_radial=  2 for radial functions.
  Species O                   : Default cutoff onset for free atom density etc. : 0.35000000E+01 AA.
  Species O                   : Basic radial grid will be enhanced according to radial_multiplier =   1, to contain    36 grid points.
 
  Finished reading input file 'control.in'. Consistency checks are next.
 
  MPI_IN_PLACE appears to work with this MPI implementation.
  | Keeping use_mpi_in_place .true. (see manual).
  Target number of points in a grid batch is not set. Defaulting to  100
  Method for grid partitioning is not set. Defaulting to parallel hash+maxmin partitioning.
  Batch size limit is not set. Defaulting to    200
  By default, will store active basis functions for each batch.
  If in need of memory, prune_basis_once .false. can be used to disable this option.
  communication_type for Hartree potential was not specified.
  Defaulting to calc_hartree .
  Pulay mixer: Number of initial linear mixing iterations not set.
  Defaulting to    0 iterations.
  Work space size for distributed Hartree potential not set.
  Defaulting to   0.200000E+03 MB.
  Algorithm-dependent basis array size parameters:
  | n_max_pulay                         :       10
  Presetting      1001 iterations before the initial mixing cycle
  is restarted anyway using the sc_init_iter criterion / keyword.
  Presetting a factor      1.000 between actual scf density residual
  and density convergence criterion sc_accuracy_rho below which sc_init_iter
  takes no effect.
  Geometry relaxation not requested: no relaxation will be performed.
  Handling of forces: Unphysical translation and rotation will be removed from forces.
  No accuracy limit for integral partition fn. given. Defaulting to  0.1000E-14.
  No threshold value for u(r) in integrations given. Defaulting to  0.1000E-05.
  No accuracy for occupation numbers given. Defaulting to  0.1000E-12.
  No threshold value for occupation numbers given. Defaulting to  0.0000E+00.
  No accuracy for fermi level given. Defaulting to  0.1000E-19.
  Maximum # of iterations to find E_F not set. Defaulting to  200.
  Preferred method for the eigenvalue solver ('KS_method') not specified in 'control.in'.
  Defaulting to serial version, 'lapack_fast'.
  Will not use alltoall communication since running on < 1024 CPUs.
  Threshold for basis singularities not set.
  Default threshold for basis singularities:  0.1000E-04
  partition_type (choice of integration weights) for integrals was not specified.
  | Using a version of the partition function of Stratmann and coworkers ('stratmann_smoother').
  | At each grid point, the set of atoms used to build the partition table is smoothly restricted to
  | only those atoms whose free-atom density would be non-zero at that grid point.
  Partitioning for Hartree potential was not defined. Using partition_type for integrals.
  | Adjusted default value of keyword multip_moments_threshold to:       0.10000000E-11
  | This value may affect high angular momentum components of the Hartree potential in periodic systems.
  No q(lm)/r^(l+1) cutoff set for long-range Hartree potential.
  | Using default value of  0.100000E-09 .
  | Verify using the multipole_threshold keyword.
  Defaulting to new monopole extrapolation.
  Density update method: automatic selection selected.
------------------------------------------------------------


------------------------------------------------------------
          Reading geometry description geometry.in.
------------------------------------------------------------
  Input structure read successfully.
  The structure contains       13 atoms,  and a total of         48.000 electrons.

  Input geometry:
  | No unit cell requested.
  | Atomic structure:
  |       Atom                x [A]            y [A]            z [A]
  |    1: Species C             0.00000000        0.00000000        0.00000000
  |    2: Species H             1.09300000        0.00000000        0.00000000
  |    3: Species N            -0.47961000        0.00000000       -1.41207000
  |    4: Species H            -0.60974000       -0.96652000       -1.71331000
  |    5: Species H            -1.36249000        0.50456000       -1.45740000
  |    6: Species C            -0.49584000        1.26211000        0.72868000
  |    7: Species H            -1.58789000        1.28919000        0.74431000
  |    8: Species H            -0.13407000        1.27425000        1.75947000
  |    9: Species H            -0.13407000        2.16087000        0.22380000
  |   10: Species C            -0.39425000       -1.28861000        0.74398000
  |   11: Species O            -0.10189000       -1.56493000        1.88303000
  |   12: Species O            -1.10210000       -2.13717000        0.06896000
  |   13: Species H            -1.84018000       -2.23511000        0.69396000
  |

  | The smallest distance between any two atoms is         0.97210047 AA.
  |
  | The first atom of this pair is atom number                     12 .
  | The second atom of this pair is atom number                    13 .

  Number of empty states per atom not set in control.in - providing a guess from actual geometry.
  | Total number of empty states used during s.c.f. cycle:       29
  If you use a very high smearing, use empty_states (per atom!) in control.in to increase this value.

  Structure-dependent array size parameters: 
  | Maximum number of distinct radial functions  :       21
  | Maximum number of basis functions            :      119
  | Number of Kohn-Sham states (occupied + empty):       53
------------------------------------------------------------

------------------------------------------------------------
          Preparing all fixed parts of the calculation.
------------------------------------------------------------
  Determining machine precision:
    2.225073858507201E-308
  Setting up grids for atomic and cluster calculations.

  Creating wave function, potential, and density for free atoms.

  Species: H

  List of occupied orbitals and eigenvalues:
    n    l              occ      energy [Ha]    energy [eV]
    1    0           1.0000        -0.237589        -6.4651


  Species: C

  List of occupied orbitals and eigenvalues:
    n    l              occ      energy [Ha]    energy [eV]
    1    0           2.0000       -10.038835      -273.1706
    2    0           2.0000        -0.502696       -13.6791
    2    1           2.0000        -0.191971        -5.2238


  Species: N

  List of occupied orbitals and eigenvalues:
    n    l              occ      energy [Ha]    energy [eV]
    1    0           2.0000       -14.128000      -384.4424
    2    0           2.0000        -0.681077       -18.5330
    2    1           3.0000        -0.259788        -7.0692


  Species: O

  List of occupied orbitals and eigenvalues:
    n    l              occ      energy [Ha]    energy [eV]
    1    0           2.0000       -18.898188      -514.2459
    2    0           2.0000        -0.878505       -23.9053
    2    1           4.0000        -0.331779        -9.0282

  Creating fixed part of basis set: Ionic, confined, hydrogenic.
 
  H                    hydrogenic:
 
  List of hydrogenic basis orbitals: 
    n    l      effective z      eigenvalue [eV]  inner max. [A]     outer max. [A]     outer radius [A]   
    2    0         2.100000       -14.9728           0.193243           1.317208           4.583499
    2    1         3.500000       -41.6669           0.602369           0.602369           3.723403
 
 
  C                    hydrogenic:
 
  List of hydrogenic basis orbitals: 
    n    l      effective z      eigenvalue [eV]  inner max. [A]     outer max. [A]     outer radius [A]   
    2    1         1.700000        -9.7616           1.230570           1.230570           4.607917
    3    2         6.000000       -54.4224           0.792453           0.792453           3.883070
    2    0         4.900000       -81.6679           0.082559           0.562749           3.078220
 
 
  N                    hydrogenic:
 
  List of hydrogenic basis orbitals: 
    n    l      effective z      eigenvalue [eV]  inner max. [A]     outer max. [A]     outer radius [A]   
    2    1         1.800000       -10.9749           1.177451           1.177451           4.573712
    3    2         6.800000       -69.9026           0.704619           0.704619           3.538137
    3    0         5.800000       -50.8545           0.067388           1.191934           4.250239
 
 
  O                    hydrogenic:
 
  List of hydrogenic basis orbitals: 
    n    l      effective z      eigenvalue [eV]  inner max. [A]     outer max. [A]     outer radius [A]   
    2    1         1.800000       -10.9749           1.164242           1.164242           4.578029
    3    2         7.600000       -87.3180           0.624125           0.624125           3.251020
    3    0         6.400000       -61.9207           0.061167           1.081902           4.001998
 

  Adding cutoff potential to free-atom effective potential.
  Creating atomic-like basis functions for current effective potential.

  Species H                   :

  List of atomic basis orbitals and eigenvalues:
    n    l      energy [Ha]    energy [eV]    outer radius [A]
    1    0        -0.237589        -6.4651       4.527807


  Species C                   :

  List of atomic basis orbitals and eigenvalues:
    n    l      energy [Ha]    energy [eV]    outer radius [A]
    1    0       -10.038835      -273.1706       1.934409
    2    0        -0.502696       -13.6791       4.496620
    2    1        -0.191971        -5.2238       4.551928


  Species N                   :

  List of atomic basis orbitals and eigenvalues:
    n    l      energy [Ha]    energy [eV]    outer radius [A]
    1    0       -14.128000      -384.4424       1.637919
    2    0        -0.681077       -18.5330       4.463241
    2    1        -0.259788        -7.0692       4.518138


  Species O                   :

  List of atomic basis orbitals and eigenvalues:
    n    l      energy [Ha]    energy [eV]    outer radius [A]
    1    0       -18.898188      -514.2459       1.415765
    2    0        -0.878505       -23.9053       4.413171
    2    1        -0.331779        -9.0282       4.522403

  Assembling full basis from fixed parts.
  | Species H :   atomic orbital   1 s accepted.
  | Species H :    hydro orbital   2 s accepted.
  | Species H :    hydro orbital   2 p accepted.
  | Species C :   atomic orbital   1 s accepted.
  | Species C :    hydro orbital   2 s accepted.
  | Species C :   atomic orbital   2 s accepted.
  | Species C :   atomic orbital   2 p accepted.
  | Species C :    hydro orbital   2 p accepted.
  | Species C :    hydro orbital   3 d accepted.
  | Species N :   atomic orbital   1 s accepted.
  | Species N :    hydro orbital   3 s accepted.
  | Species N :   atomic orbital   2 s accepted.
  | Species N :   atomic orbital   2 p accepted.
  | Species N :    hydro orbital   2 p accepted.
  | Species N :    hydro orbital   3 d accepted.
  | Species O :   atomic orbital   1 s accepted.
  | Species O :    hydro orbital   3 s accepted.
  | Species O :   atomic orbital   2 s accepted.
  | Species O :   atomic orbital   2 p accepted.
  | Species O :    hydro orbital   2 p accepted.
  | Species O :    hydro orbital   3 d accepted.
 
  Basis size parameters after reduction:
  | Total number of radial functions:       21
  | Total number of basis functions :      119
 
  Per-task memory consumption for arrays in subroutine allocate_ext:
  |           5.250512MB.
  Testing on-site integration grid accuracy.
  |  Species  Function  <phi|h_atom|phi> (log., in eV)  <phi|h_atom|phi> (rad., in eV)
           1        1                 -6.4663192853                 -6.4651273558
           1        2                 13.7111246313                 13.7170609718
           1        3                 25.2673269279                 25.2674696378
           2        4               -273.1705927641               -273.1705631568
           2        5                -10.7109323383                -10.7107120029
           2        6                 17.4381822266                 17.4352413244
           2        7                 -5.2255326521                 -5.2270484734
           2        8                  8.6835629259                  8.6603288385
           2        9                 27.4952418996                 27.4953360207
           3       10               -384.4424306495               -384.4423701208
           3       11                 12.5842251816                 12.5842222903
           3       12                -15.7264628251                -15.7264433455
           3       13                 -7.0696854293                 -7.0701769954
           3       14                  8.8090390882                  8.7901077751
           3       15                 35.9586762123                 35.9588528632
           4       16               -514.2458688638               -514.2457643834
           4       17                 15.1795651126                 15.1795290741
           4       18                -21.5359799773                -21.5360846186
           4       19                 -9.0283069236                 -9.0284644067
           4       20                  8.3027758564                  8.2834874195
           4       21                 45.8339351984                 45.8338762259

  Preparing densities etc. for the partition functions (integrals / Hartree potential).

  Preparations completed.
  max(cpu_time)          :      0.145 s.
  Wall clock time (cpu1) :      0.147 s.
------------------------------------------------------------

------------------------------------------------------------
          Begin self-consistency loop: Initialization.

          Date     :  20200815, Time     :  004524.607
------------------------------------------------------------

  Initializing index lists of integration centers etc. from given atomic structure:
  | Number of centers in hartree potential         :        13
  | Number of centers in hartree multipole         :        13
  | Number of centers in electron density summation:        13
  | Number of centers in basis integrals           :        13
  | Number of centers in integrals                 :        13
  | Number of centers in hamiltonian               :        13
  Partitioning the integration grid into batches with parallel hashing+maxmin method.
  | Number of batches:      951
  | Maximal batch size:     139
  | Minimal batch size:      66
  | Average batch size:      73.234
  | Standard deviation of batch sizes:      18.126

  Integration load balanced across     1 MPI tasks.
  Work distribution over tasks is as follows:
  Task     0 has      69646 integration points.
  Initializing partition tables, free-atom densities, potentials, etc. across the integration grid (initialize_grid_storage).
  | initialize_grid_storage: Actual outermost partition radius vs. multipole_radius_free
  | (-- VB: in principle, multipole_radius_free should be larger, hence this output)
  | Species        1: Confinement radius =              4.999999999999999 AA, multipole_radius_free =              5.054417573612229 AA.
  | Species        1: outer_partition_radius set to              5.054417573612229 AA .
  | Species        2: Confinement radius =              4.999999999999999 AA, multipole_radius_free =              5.019602836301480 AA.
  | Species        2: outer_partition_radius set to              5.019602836301480 AA .
  | Species        3: Confinement radius =              4.999999999999999 AA, multipole_radius_free =              5.043624274424571 AA.
  | Species        3: outer_partition_radius set to              5.043624274424571 AA .
  | Species        4: Confinement radius =              4.999999999999999 AA, multipole_radius_free =              5.048384829883283 AA.
  | Species        4: outer_partition_radius set to              5.048384829883283 AA .
  | Original list of interatomic distances with          13 x         13 entries is created.
  | Net number of integration points:    69646
  | of which are non-zero points    :    59505
  Renormalizing the initial density to the exact electron count on the 3D integration grid.
  | Initial density: Formal number of electrons (from input files) :      48.0000000000
  | Integrated number of electrons on 3D grid     :      47.9999134346
  | Charge integration error                      :      -0.0000865654
  | Normalization factor for density and gradient :       1.0000018034
  Obtaining max. number of non-zero basis functions in each batch (get_n_compute_maxes).
  | Maximal number of non-zero basis functions:      119 in task     0
  Selecting the method for density update.
  Loop over occupied states selected for charge density update.
  Allocating        0.050 MB for KS_eigenvector
  Integrating Hamiltonian matrix: batch-based integration.
  Time summed over all CPUs for integration: real work        0.493 s, elapsed        0.493 s
  Integrating overlap matrix.
  Time summed over all CPUs for integration: real work        0.212 s, elapsed        0.212 s

  Updating Kohn-Sham eigenvalues and eigenvectors using ELSI and the ELPA eigensolver.
  Overlap matrix is nonsingular
  | Lowest eigenvalue of overlap  :  0.52E-02
  | Highest eigenvalue of overlap :  0.62E+01
  Finished singularity check of overlap matrix
  | Time :     0.002 s
  Finished Cholesky decomposition
  | Time :     0.000 s
  Finished transformation to standard eigenproblem
  | Time :     0.000 s
  Starting LAPACK eigensolver
  Finished solving standard eigenproblem
  | Time :     0.002 s
  Finished back-transformation of eigenvectors
  | Time :     0.000 s

  Obtaining occupation numbers and chemical potential using ELSI.
  | Chemical potential (Fermi level):    -8.81327692eV
  Writing Kohn-Sham eigenvalues.

  State    Occupation    Eigenvalue [Ha]    Eigenvalue [eV]
      1       2.00000         -19.008195         -517.23931
      2       2.00000         -18.977709         -516.40975
      3       2.00000         -14.245792         -387.64773
      4       2.00000         -10.166817         -276.65316
      5       2.00000         -10.141254         -275.95757
      6       2.00000         -10.132127         -275.70921
      7       2.00000          -1.186361          -32.28253
      8       2.00000          -1.095069          -29.79833
      9       2.00000          -0.991712          -26.98585
     10       2.00000          -0.859954          -23.40053
     11       2.00000          -0.759864          -20.67696
     12       2.00000          -0.680741          -18.52392
     13       2.00000          -0.621402          -16.90921
     14       2.00000          -0.612271          -16.66074
     15       2.00000          -0.586896          -15.97025
     16       2.00000          -0.574576          -15.63501
     17       2.00000          -0.550439          -14.97821
     18       2.00000          -0.523169          -14.23615
     19       2.00000          -0.515752          -14.03433
     20       2.00000          -0.502400          -13.67101
     21       2.00000          -0.464672          -12.64436
     22       2.00000          -0.429822          -11.69604
     23       2.00000          -0.416943          -11.34561
     24       2.00000          -0.377436          -10.27057
     25       0.00000          -0.159783           -4.34790
     26       0.00000          -0.060900           -1.65717
     27       0.00000          -0.028799           -0.78365
     28       0.00000          -0.017958           -0.48866
     29       0.00000          -0.002143           -0.05831
     30       0.00000           0.006609            0.17985
     31       0.00000           0.018418            0.50118
     32       0.00000           0.029874            0.81292
     33       0.00000           0.042227            1.14906
     34       0.00000           0.061844            1.68285
     35       0.00000           0.098382            2.67711
     36       0.00000           0.134379            3.65663
     37       0.00000           0.161724            4.40073
     38       0.00000           0.200816            5.46449
     39       0.00000           0.203138            5.52768
     40       0.00000           0.243549            6.62730
     41       0.00000           0.255313            6.94742
     42       0.00000           0.277312            7.54605
     43       0.00000           0.280420            7.63062
     44       0.00000           0.301424            8.20215
     45       0.00000           0.327928            8.92337
     46       0.00000           0.354842            9.65574
     47       0.00000           0.368239           10.02029
     48       0.00000           0.414618           11.28233
     49       0.00000           0.426147           11.59605
     50       0.00000           0.480462           13.07403
     51       0.00000           0.499639           13.59588
     52       0.00000           0.534607           14.54739
     53       0.00000           0.595019           16.19128

  Highest occupied state (VBM) at    -10.27056963 eV
  | Occupation number:      2.00000000

  Lowest unoccupied state (CBM) at    -4.34790465 eV
  | Occupation number:      0.00000000

  Overall HOMO-LUMO gap:      5.92266498 eV.
  Calculating total energy contributions from superposition of free atom densities.

  Total energy components:
  | Sum of eigenvalues            :        -188.84274990 Ha       -5138.67267764 eV
  | XC energy correction          :         -41.79020213 Ha       -1137.16925854 eV
  | XC potential correction       :          53.72211913 Ha        1461.85323979 eV
  | Free-atom electrostatic energy:        -146.85024013 Ha       -3995.99834808 eV
  | Hartree energy correction     :           0.00000000 Ha           0.00000000 eV
  | vdW energy correction         :           0.00000000 Ha           0.00000000 eV
  | Entropy correction            :           0.00000000 Ha           0.00000000 eV
  | ---------------------------
  | Total energy                  :        -323.76107303 Ha       -8809.98704446 eV
  | Total energy, T -> 0          :        -323.76107303 Ha       -8809.98704446 eV  <-- do not rely on this value for anything but (periodic) metals
  | Electronic free energy        :        -323.76107303 Ha       -8809.98704446 eV

  Derived energy quantities:
  | Kinetic energy                :         320.49855448 Ha        8721.20939758 eV
  | Electrostatic energy          :        -602.46942538 Ha      -16394.02718351 eV
  | Energy correction for multipole
  | error in Hartree potential    :           0.00000000 Ha           0.00000000 eV
  | Sum of eigenvalues per atom                           :        -395.28251366 eV
  | Total energy (T->0) per atom                          :        -677.69131111 eV  <-- do not rely on this value for anything but (periodic) metals
  | Electronic free energy per atom                       :        -677.69131111 eV
  Initialize hartree_potential_storage
  Max. number of atoms included in rho_multipole:           13

  End scf initialization - timings             :  max(cpu_time)    wall_clock(cpu1)
  | Time for scf. initialization               :        1.147 s           1.149 s
  | Boundary condition initialization          :        0.000 s           0.000 s
  | Integration                                :        0.705 s           0.706 s
  | Solution of K.-S. eqns.                    :        0.004 s           0.004 s
  | Grid partitioning                          :        0.110 s           0.111 s
  | Preloading free-atom quantities on grid    :        0.002 s           0.002 s
  | Free-atom superposition energy             :        0.084 s           0.085 s
  | Total energy evaluation                    :        0.000 s           0.000 s

  Partial memory accounting:
  | Current value for overall tracked memory usage on task 0  :           0.165 MB
  | Peak value for overall tracked memory usage on task 0     :           0.678 MB after allocating wave
  | Largest tracked array allocation on task 0 so far         :           0.132 MB  when allocating H_times_psi
  Note:  These values currently only include a subset of arrays which are explicitly tracked.
  The "true" memory usage will be greater.
------------------------------------------------------------

------------------------------------------------------------
          Begin self-consistency iteration #    1

  Date     :  20200815, Time     :  004525.756
------------------------------------------------------------
  Evaluating new KS density.
  Integration grid: deviation in total charge (<rho> - N_e) =   2.131628E-14
  Pulay mixing of updated and previous charge densities.

  Evaluating partitioned Hartree potential by multipole expansion.
  | Analytical far-field extrapolation by fixed multipoles:
  | Hartree multipole sum: apparent total charge =  -0.192701E-03
  Summing up the Hartree potential.
  Time summed over all CPUs for potential: real work        0.282 s, elapsed        0.282 s
  | RMS charge density error from multipole expansion :   0.589141E-02

  Integrating Hamiltonian matrix: batch-based integration.
  Time summed over all CPUs for integration: real work        0.493 s, elapsed        0.493 s

  Updating Kohn-Sham eigenvalues and eigenvectors using ELSI and the ELPA eigensolver.
  Finished Cholesky decomposition
  | Time :     0.000 s
  Finished transformation to standard eigenproblem
  | Time :     0.000 s
  Starting LAPACK eigensolver
  Finished solving standard eigenproblem
  | Time :     0.002 s
  Finished back-transformation of eigenvectors
  | Time :     0.000 s

  Obtaining occupation numbers and chemical potential using ELSI.
  | Chemical potential (Fermi level):    -7.64803066eV
  Writing Kohn-Sham eigenvalues.

  State    Occupation    Eigenvalue [Ha]    Eigenvalue [eV]
      1       2.00000         -18.904015         -514.40441
      2       2.00000         -18.840127         -512.66595
      3       2.00000         -14.093676         -383.50845
      4       2.00000         -10.117921         -275.32263
      5       2.00000         -10.061690         -273.79252
      6       2.00000         -10.033842         -273.03473
      7       2.00000          -1.138778          -30.98772
      8       2.00000          -1.034019          -28.13709
      9       2.00000          -0.920636          -25.05178
     10       2.00000          -0.793953          -21.60457
     11       2.00000          -0.710043          -19.32125
     12       2.00000          -0.634756          -17.27260
     13       2.00000          -0.563469          -15.33278
     14       2.00000          -0.558166          -15.18846
     15       2.00000          -0.526840          -14.33606
     16       2.00000          -0.516613          -14.05774
     17       2.00000          -0.490808          -13.35556
     18       2.00000          -0.465220          -12.65927
     19       2.00000          -0.451232          -12.27865
     20       2.00000          -0.443274          -12.06211
     21       2.00000          -0.408202          -11.10774
     22       2.00000          -0.372057          -10.12420
     23       2.00000          -0.346044           -9.41635
     24       2.00000          -0.304654           -8.29007
     25       0.00000          -0.125744           -3.42167
     26       0.00000          -0.038947           -1.05980
     27       0.00000           0.002677            0.07286
     28       0.00000           0.016072            0.43735
     29       0.00000           0.028288            0.76975
     30       0.00000           0.045760            1.24520
     31       0.00000           0.058443            1.59032
     32       0.00000           0.069426            1.88917
     33       0.00000           0.076921            2.09312
     34       0.00000           0.104326            2.83885
     35       0.00000           0.141515            3.85081
     36       0.00000           0.161721            4.40066
     37       0.00000           0.186306            5.06964
     38       0.00000           0.227712            6.19636
     39       0.00000           0.230684            6.27723
     40       0.00000           0.281560            7.66165
     41       0.00000           0.290462            7.90387
     42       0.00000           0.310734            8.45549
     43       0.00000           0.317295            8.63405
     44       0.00000           0.338491            9.21081
     45       0.00000           0.369758           10.06162
     46       0.00000           0.390694           10.63132
     47       0.00000           0.408313           11.11075
     48       0.00000           0.447269           12.17082
     49       0.00000           0.465767           12.67416
     50       0.00000           0.516326           14.04995
     51       0.00000           0.529826           14.41730
     52       0.00000           0.566806           15.42358
     53       0.00000           0.634823           17.27441

  Highest occupied state (VBM) at     -8.29006871 eV
  | Occupation number:      2.00000000

  Lowest unoccupied state (CBM) at    -3.42166742 eV
  | Occupation number:      0.00000000

  Overall HOMO-LUMO gap:      4.86840129 eV.

  Total energy components:
  | Sum of eigenvalues            :        -185.46007337 Ha       -5046.62536596 eV
  | XC energy correction          :         -42.11952839 Ha       -1146.13068193 eV
  | XC potential correction       :          54.15044837 Ha        1473.50867154 eV
  | Free-atom electrostatic energy:        -146.85024013 Ha       -3995.99834808 eV
  | Hartree energy correction     :          -3.29968200 Ha         -89.78891565 eV
  | vdW energy correction         :           0.00000000 Ha           0.00000000 eV
  | Entropy correction            :           0.00000000 Ha           0.00000000 eV
  | ---------------------------
  | Total energy                  :        -323.57907552 Ha       -8805.03464009 eV
  | Total energy, T -> 0          :        -323.57907552 Ha       -8805.03464009 eV  <-- do not rely on this value for anything but (periodic) metals
  | Electronic free energy        :        -323.57907552 Ha       -8805.03464009 eV

  Derived energy quantities:
  | Kinetic energy                :         322.29484674 Ha        8770.08899708 eV
  | Electrostatic energy          :        -603.75439387 Ha      -16428.99295525 eV
  | Energy correction for multipole
  | error in Hartree potential    :           0.01207781 Ha           0.32865386 eV
  | Sum of eigenvalues per atom                           :        -388.20195123 eV
  | Total energy (T->0) per atom                          :        -677.31035693 eV  <-- do not rely on this value for anything but (periodic) metals
  | Electronic free energy per atom                       :        -677.31035693 eV

  Self-consistency convergence accuracy:
  | Change of charge density      :  0.5863E+00
  | Change of sum of eigenvalues  :  0.9205E+02 eV
  | Change of total energy        :  0.4952E+01 eV

  End self-consistency iteration #     1       :  max(cpu_time)    wall_clock(cpu1)
  | Time for this iteration                    :        1.186 s           1.187 s
  | Charge density update                      :        0.393 s           0.394 s
  | Density mixing                             :        0.005 s           0.005 s
  | Hartree multipole update                   :        0.009 s           0.009 s
  | Hartree multipole summation                :        0.283 s           0.283 s
  | Integration                                :        0.493 s           0.494 s
  | Solution of K.-S. eqns.                    :        0.002 s           0.002 s
  | Total energy evaluation                    :        0.000 s           0.000 s

  Partial memory accounting:
  | Current value for overall tracked memory usage on task 0  :           0.165 MB
  | Peak value for overall tracked memory usage on task 0     :           0.695 MB after allocating gradient_basis_wave
  | Largest tracked array allocation on task 0 so far         :           0.397 MB  when allocating gradient_basis_wave
  Note:  These values currently only include a subset of arrays which are explicitly tracked.
  The "true" memory usage will be greater.
------------------------------------------------------------

------------------------------------------------------------
          Begin self-consistency iteration #    2

  Date     :  20200815, Time     :  004526.945
------------------------------------------------------------
  Evaluating new KS density.
  Integration grid: deviation in total charge (<rho> - N_e) =   3.552714E-14
  Pulay mixing of updated and previous charge densities.

  Evaluating partitioned Hartree potential by multipole expansion.
  | Analytical far-field extrapolation by fixed multipoles:
  | Hartree multipole sum: apparent total charge =  -0.327798E-03
  Summing up the Hartree potential.
  Time summed over all CPUs for potential: real work        0.283 s, elapsed        0.283 s
  | RMS charge density error from multipole expansion :   0.140211E-01

  Integrating Hamiltonian matrix: batch-based integration.
  Time summed over all CPUs for integration: real work        0.493 s, elapsed        0.493 s

  Updating Kohn-Sham eigenvalues and eigenvectors using ELSI and the ELPA eigensolver.
  Finished Cholesky decomposition
  | Time :     0.000 s
  Finished transformation to standard eigenproblem
  | Time :     0.000 s
  Starting LAPACK eigensolver
  Finished solving standard eigenproblem
  | Time :     0.001 s
  Finished back-transformation of eigenvectors
  | Time :     0.000 s

  Obtaining occupation numbers and chemical potential using ELSI.
  | Chemical potential (Fermi level):    -4.25199898eV
  Highest occupied state (VBM) at     -6.27311050 eV
  | Occupation number:      2.00000000

  Lowest unoccupied state (CBM) at    -2.22095042 eV
  | Occupation number:      0.00000000

  Overall HOMO-LUMO gap:      4.05216008 eV.

  Checking to see if s.c.f. parameters should be adjusted.

  Total energy components:
  | Sum of eigenvalues            :        -181.87820652 Ha       -4949.15780986 eV
  | XC energy correction          :         -42.48188599 Ha       -1155.99093393 eV
  | XC potential correction       :          54.62021758 Ha        1486.29174194 eV
  | Free-atom electrostatic energy:        -146.85024013 Ha       -3995.99834808 eV
  | Hartree energy correction     :          -6.91024542 Ha        -188.03734518 eV
  | vdW energy correction         :           0.00000000 Ha           0.00000000 eV
  | Entropy correction            :           0.00000000 Ha           0.00000000 eV
  | ---------------------------
  | Total energy                  :        -323.50036049 Ha       -8802.89269511 eV
  | Total energy, T -> 0          :        -323.50036049 Ha       -8802.89269511 eV  <-- do not rely on this value for anything but (periodic) metals
  | Electronic free energy        :        -323.50036049 Ha       -8802.89269511 eV

  Derived energy quantities:
  | Kinetic energy                :         323.62627287 Ha        8806.31894547 eV
  | Electrostatic energy          :        -604.64474737 Ha      -16453.22070664 eV
  | Energy correction for multipole
  | error in Hartree potential    :           0.02667921 Ha           0.72597814 eV
  | Sum of eigenvalues per atom                           :        -380.70444691 eV
  | Total energy (T->0) per atom                          :        -677.14559193 eV  <-- do not rely on this value for anything but (periodic) metals
  | Electronic free energy per atom                       :        -677.14559193 eV

  Self-consistency convergence accuracy:
  | Change of charge density      :  0.3665E+00
  | Change of sum of eigenvalues  :  0.9747E+02 eV
  | Change of total energy        :  0.2142E+01 eV

  End self-consistency iteration #     2       :  max(cpu_time)    wall_clock(cpu1)
  | Time for this iteration                    :        1.180 s           1.185 s
  | Charge density update                      :        0.387 s           0.391 s
  | Density mixing                             :        0.007 s           0.007 s
  | Hartree multipole update                   :        0.009 s           0.009 s
  | Hartree multipole summation                :        0.283 s           0.283 s
  | Integration                                :        0.493 s           0.493 s
  | Solution of K.-S. eqns.                    :        0.002 s           0.002 s
  | Total energy evaluation                    :        0.000 s           0.000 s

  Partial memory accounting:
  | Current value for overall tracked memory usage on task 0  :           0.166 MB
  | Peak value for overall tracked memory usage on task 0     :           0.695 MB after allocating gradient_basis_wave
  | Largest tracked array allocation on task 0 so far         :           0.397 MB  when allocating gradient_basis_wave
  Note:  These values currently only include a subset of arrays which are explicitly tracked.
  The "true" memory usage will be greater.
------------------------------------------------------------

------------------------------------------------------------
          Begin self-consistency iteration #    3

  Date     :  20200815, Time     :  004528.131
------------------------------------------------------------
  Evaluating new KS density.
  Integration grid: deviation in total charge (<rho> - N_e) =  -7.105427E-15
  Pulay mixing of updated and previous charge densities.

  Evaluating partitioned Hartree potential by multipole expansion.
  | Analytical far-field extrapolation by fixed multipoles:
  | Hartree multipole sum: apparent total charge =  -0.419776E-03
  Summing up the Hartree potential.
  Time summed over all CPUs for potential: real work        0.283 s, elapsed        0.283 s
  | RMS charge density error from multipole expansion :   0.220720E-01

  Integrating Hamiltonian matrix: batch-based integration.
  Time summed over all CPUs for integration: real work        0.493 s, elapsed        0.493 s

  Updating Kohn-Sham eigenvalues and eigenvectors using ELSI and the ELPA eigensolver.
  Finished Cholesky decomposition
  | Time :     0.000 s
  Finished transformation to standard eigenproblem
  | Time :     0.000 s
  Starting LAPACK eigensolver
  Finished solving standard eigenproblem
  | Time :     0.001 s
  Finished back-transformation of eigenvectors
  | Time :     0.000 s

  Obtaining occupation numbers and chemical potential using ELSI.
  | Chemical potential (Fermi level):    -3.63153510eV
  Highest occupied state (VBM) at     -5.59161235 eV
  | Occupation number:      2.00000000

  Lowest unoccupied state (CBM) at    -1.53100368 eV
  | Occupation number:      0.00000000

  Overall HOMO-LUMO gap:      4.06060866 eV.

  Total energy components:
  | Sum of eigenvalues            :        -180.57157634 Ha       -4913.60259360 eV
  | XC energy correction          :         -42.63302707 Ha       -1160.10369199 eV
  | XC potential correction       :          54.81302745 Ha        1491.53836550 eV
  | Free-atom electrostatic energy:        -146.85024013 Ha       -3995.99834808 eV
  | Hartree energy correction     :          -8.24595047 Ha        -224.38372881 eV
  | vdW energy correction         :           0.00000000 Ha           0.00000000 eV
  | Entropy correction            :           0.00000000 Ha           0.00000000 eV
  | ---------------------------
  | Total energy                  :        -323.48776656 Ha       -8802.54999699 eV
  | Total energy, T -> 0          :        -323.48776656 Ha       -8802.54999699 eV  <-- do not rely on this value for anything but (periodic) metals
  | Electronic free energy        :        -323.48776656 Ha       -8802.54999699 eV

  Derived energy quantities:
  | Kinetic energy                :         323.20738675 Ha        8794.92047416 eV
  | Electrostatic energy          :        -604.06212625 Ha      -16437.36677916 eV
  | Energy correction for multipole
  | error in Hartree potential    :           0.03766250 Ha           1.02484881 eV
  | Sum of eigenvalues per atom                           :        -377.96943028 eV
  | Total energy (T->0) per atom                          :        -677.11923054 eV  <-- do not rely on this value for anything but (periodic) metals
  | Electronic free energy per atom                       :        -677.11923054 eV

  Self-consistency convergence accuracy:
  | Change of charge density      :  0.2041E+00
  | Change of sum of eigenvalues  :  0.3556E+02 eV
  | Change of total energy        :  0.3427E+00 eV

  End self-consistency iteration #     3       :  max(cpu_time)    wall_clock(cpu1)
  | Time for this iteration                    :        1.182 s           1.182 s
  | Charge density update                      :        0.387 s           0.387 s
  | Density mixing                             :        0.008 s           0.008 s
  | Hartree multipole update                   :        0.009 s           0.009 s
  | Hartree multipole summation                :        0.283 s           0.283 s
  | Integration                                :        0.493 s           0.493 s
  | Solution of K.-S. eqns.                    :        0.002 s           0.002 s
  | Total energy evaluation                    :        0.000 s           0.000 s

  Partial memory accounting:
  | Current value for overall tracked memory usage on task 0  :           0.166 MB
  | Peak value for overall tracked memory usage on task 0     :           0.695 MB after allocating gradient_basis_wave
  | Largest tracked array allocation on task 0 so far         :           0.397 MB  when allocating gradient_basis_wave
  Note:  These values currently only include a subset of arrays which are explicitly tracked.
  The "true" memory usage will be greater.
------------------------------------------------------------

------------------------------------------------------------
          Begin self-consistency iteration #    4

  Date     :  20200815, Time     :  004529.314
------------------------------------------------------------
  Evaluating new KS density.
  Integration grid: deviation in total charge (<rho> - N_e) =  -3.552714E-14
  Pulay mixing of updated and previous charge densities.

  Evaluating partitioned Hartree potential by multipole expansion.
  | Analytical far-field extrapolation by fixed multipoles:
  | Hartree multipole sum: apparent total charge =  -0.449228E-03
  Summing up the Hartree potential.
  Time summed over all CPUs for potential: real work        0.283 s, elapsed        0.283 s
  | RMS charge density error from multipole expansion :   0.254632E-01

  Integrating Hamiltonian matrix: batch-based integration.
  Time summed over all CPUs for integration: real work        0.493 s, elapsed        0.493 s

  Updating Kohn-Sham eigenvalues and eigenvectors using ELSI and the ELPA eigensolver.
  Finished Cholesky decomposition
  | Time :     0.000 s
  Finished transformation to standard eigenproblem
  | Time :     0.000 s
  Starting LAPACK eigensolver
  Finished solving standard eigenproblem
  | Time :     0.002 s
  Finished back-transformation of eigenvectors
  | Time :     0.000 s

  Obtaining occupation numbers and chemical potential using ELSI.
  | Chemical potential (Fermi level):    -3.51988272eV
  Highest occupied state (VBM) at     -5.40931044 eV
  | Occupation number:      2.00000000

  Lowest unoccupied state (CBM) at    -1.45201358 eV
  | Occupation number:      0.00000000

  Overall HOMO-LUMO gap:      3.95729686 eV.

  Total energy components:
  | Sum of eigenvalues            :        -180.43850854 Ha       -4909.98163437 eV
  | XC energy correction          :         -42.66937787 Ha       -1161.09284749 eV
  | XC potential correction       :          54.85875127 Ha        1492.78257403 eV
  | Free-atom electrostatic energy:        -146.85024013 Ha       -3995.99834808 eV
  | Hartree energy correction     :          -8.38747669 Ha        -228.23485325 eV
  | vdW energy correction         :           0.00000000 Ha           0.00000000 eV
  | Entropy correction            :           0.00000000 Ha           0.00000000 eV
  | ---------------------------
  | Total energy                  :        -323.48685195 Ha       -8802.52510917 eV
  | Total energy, T -> 0          :        -323.48685195 Ha       -8802.52510917 eV  <-- do not rely on this value for anything but (periodic) metals
  | Electronic free energy        :        -323.48685195 Ha       -8802.52510917 eV

  Derived energy quantities:
  | Kinetic energy                :         322.81742504 Ha        8784.30907594 eV
  | Electrostatic energy          :        -603.63489912 Ha      -16425.74133762 eV
  | Energy correction for multipole
  | error in Hartree potential    :           0.04176673 Ha           1.13653054 eV
  | Sum of eigenvalues per atom                           :        -377.69089495 eV
  | Total energy (T->0) per atom                          :        -677.11731609 eV  <-- do not rely on this value for anything but (periodic) metals
  | Electronic free energy per atom                       :        -677.11731609 eV

  Self-consistency convergence accuracy:
  | Change of charge density      :  0.6469E-01
  | Change of sum of eigenvalues  :  0.3621E+01 eV
  | Change of total energy        :  0.2489E-01 eV

  End self-consistency iteration #     4       :  max(cpu_time)    wall_clock(cpu1)
  | Time for this iteration                    :        1.185 s           1.189 s
  | Charge density update                      :        0.388 s           0.391 s
  | Density mixing                             :        0.009 s           0.010 s
  | Hartree multipole update                   :        0.009 s           0.008 s
  | Hartree multipole summation                :        0.283 s           0.284 s
  | Integration                                :        0.493 s           0.493 s
  | Solution of K.-S. eqns.                    :        0.002 s           0.002 s
  | Total energy evaluation                    :        0.000 s           0.000 s

  Partial memory accounting:
  | Current value for overall tracked memory usage on task 0  :           0.166 MB
  | Peak value for overall tracked memory usage on task 0     :           0.696 MB after allocating gradient_basis_wave
  | Largest tracked array allocation on task 0 so far         :           0.397 MB  when allocating gradient_basis_wave
  Note:  These values currently only include a subset of arrays which are explicitly tracked.
  The "true" memory usage will be greater.
------------------------------------------------------------

------------------------------------------------------------
          Begin self-consistency iteration #    5

  Date     :  20200815, Time     :  004530.505
------------------------------------------------------------
  Evaluating new KS density.
  Integration grid: deviation in total charge (<rho> - N_e) =  -1.421085E-14
  Pulay mixing of updated and previous charge densities.

  Evaluating partitioned Hartree potential by multipole expansion.
  | Analytical far-field extrapolation by fixed multipoles:
  | Hartree multipole sum: apparent total charge =  -0.442917E-03
  Summing up the Hartree potential.
  Time summed over all CPUs for potential: real work        0.283 s, elapsed        0.283 s
  | RMS charge density error from multipole expansion :   0.252228E-01

  Integrating Hamiltonian matrix: batch-based integration.
  Time summed over all CPUs for integration: real work        0.494 s, elapsed        0.494 s

  Updating Kohn-Sham eigenvalues and eigenvectors using ELSI and the ELPA eigensolver.
  Finished Cholesky decomposition
  | Time :     0.000 s
  Finished transformation to standard eigenproblem
  | Time :     0.000 s
  Starting LAPACK eigensolver
  Finished solving standard eigenproblem
  | Time :     0.002 s
  Finished back-transformation of eigenvectors
  | Time :     0.000 s

  Obtaining occupation numbers and chemical potential using ELSI.
  | Chemical potential (Fermi level):    -3.58140777eV
  Highest occupied state (VBM) at     -5.50166598 eV
  | Occupation number:      2.00000000

  Lowest unoccupied state (CBM) at    -1.54359504 eV
  | Occupation number:      0.00000000

  Overall HOMO-LUMO gap:      3.95807094 eV.

  Total energy components:
  | Sum of eigenvalues            :        -180.64172383 Ha       -4915.51140386 eV
  | XC energy correction          :         -42.64461183 Ha       -1160.41892926 eV
  | XC potential correction       :          54.82662647 Ha        1491.90841375 eV
  | Free-atom electrostatic energy:        -146.85024013 Ha       -3995.99834808 eV
  | Hartree energy correction     :          -8.17661457 Ha        -222.49700290 eV
  | vdW energy correction         :           0.00000000 Ha           0.00000000 eV
  | Entropy correction            :           0.00000000 Ha           0.00000000 eV
  | ---------------------------
  | Total energy                  :        -323.48656388 Ha       -8802.51727035 eV
  | Total energy, T -> 0          :        -323.48656388 Ha       -8802.51727035 eV  <-- do not rely on this value for anything but (periodic) metals
  | Electronic free energy        :        -323.48656388 Ha       -8802.51727035 eV

  Derived energy quantities:
  | Kinetic energy                :         322.70051850 Ha        8781.12788719 eV
  | Electrostatic energy          :        -603.54247055 Ha      -16423.22622828 eV
  | Energy correction for multipole
  | error in Hartree potential    :           0.04112591 Ha           1.11909288 eV
  | Sum of eigenvalues per atom                           :        -378.11626184 eV
  | Total energy (T->0) per atom                          :        -677.11671310 eV  <-- do not rely on this value for anything but (periodic) metals
  | Electronic free energy per atom                       :        -677.11671310 eV

  Self-consistency convergence accuracy:
  | Change of charge density      :  0.2014E-01
  | Change of sum of eigenvalues  : -0.5530E+01 eV
  | Change of total energy        :  0.7839E-02 eV

  End self-consistency iteration #     5       :  max(cpu_time)    wall_clock(cpu1)
  | Time for this iteration                    :        1.186 s           1.187 s
  | Charge density update                      :        0.387 s           0.387 s
  | Density mixing                             :        0.011 s           0.011 s
  | Hartree multipole update                   :        0.009 s           0.009 s
  | Hartree multipole summation                :        0.283 s           0.284 s
  | Integration                                :        0.494 s           0.494 s
  | Solution of K.-S. eqns.                    :        0.002 s           0.002 s
  | Total energy evaluation                    :        0.000 s           0.000 s

  Partial memory accounting:
  | Current value for overall tracked memory usage on task 0  :           0.166 MB
  | Peak value for overall tracked memory usage on task 0     :           0.696 MB after allocating gradient_basis_wave
  | Largest tracked array allocation on task 0 so far         :           0.397 MB  when allocating gradient_basis_wave
  Note:  These values currently only include a subset of arrays which are explicitly tracked.
  The "true" memory usage will be greater.
------------------------------------------------------------

------------------------------------------------------------
          Begin self-consistency iteration #    6

  Date     :  20200815, Time     :  004531.693
------------------------------------------------------------
  Evaluating new KS density.
  Integration grid: deviation in total charge (<rho> - N_e) =   1.421085E-14
  Pulay mixing of updated and previous charge densities.

  Evaluating partitioned Hartree potential by multipole expansion.
  | Analytical far-field extrapolation by fixed multipoles:
  | Hartree multipole sum: apparent total charge =  -0.446300E-03
  Summing up the Hartree potential.
  Time summed over all CPUs for potential: real work        0.282 s, elapsed        0.282 s
  | RMS charge density error from multipole expansion :   0.256648E-01

  Integrating Hamiltonian matrix: batch-based integration.
  Time summed over all CPUs for integration: real work        0.493 s, elapsed        0.493 s

  Updating Kohn-Sham eigenvalues and eigenvectors using ELSI and the ELPA eigensolver.
  Finished Cholesky decomposition
  | Time :     0.000 s
  Finished transformation to standard eigenproblem
  | Time :     0.000 s
  Starting LAPACK eigensolver
  Finished solving standard eigenproblem
  | Time :     0.002 s
  Finished back-transformation of eigenvectors
  | Time :     0.000 s

  Obtaining occupation numbers and chemical potential using ELSI.
  | Chemical potential (Fermi level):    -3.56962397eV
  Highest occupied state (VBM) at     -5.46794484 eV
  | Occupation number:      2.00000000

  Lowest unoccupied state (CBM) at    -1.55418918 eV
  | Occupation number:      0.00000000

  Overall HOMO-LUMO gap:      3.91375565 eV.

  Total energy components:
  | Sum of eigenvalues            :        -180.63419572 Ha       -4915.30655362 eV
  | XC energy correction          :         -42.64504003 Ha       -1160.43058121 eV
  | XC potential correction       :          54.82715540 Ha        1491.92280650 eV
  | Free-atom electrostatic energy:        -146.85024013 Ha       -3995.99834808 eV
  | Hartree energy correction     :          -8.18420607 Ha        -222.70357812 eV
  | vdW energy correction         :           0.00000000 Ha           0.00000000 eV
  | Entropy correction            :           0.00000000 Ha           0.00000000 eV
  | ---------------------------
  | Total energy                  :        -323.48652655 Ha       -8802.51625453 eV
  | Total energy, T -> 0          :        -323.48652655 Ha       -8802.51625453 eV  <-- do not rely on this value for anything but (periodic) metals
  | Electronic free energy        :        -323.48652655 Ha       -8802.51625453 eV

  Derived energy quantities:
  | Kinetic energy                :         322.62748308 Ha        8779.14049244 eV
  | Electrostatic energy          :        -603.46896961 Ha      -16421.22616577 eV
  | Energy correction for multipole
  | error in Hartree potential    :           0.04152814 Ha           1.13003812 eV
  | Sum of eigenvalues per atom                           :        -378.10050412 eV
  | Total energy (T->0) per atom                          :        -677.11663496 eV  <-- do not rely on this value for anything but (periodic) metals
  | Electronic free energy per atom                       :        -677.11663496 eV

  Self-consistency convergence accuracy:
  | Change of charge density      :  0.1037E-01
  | Change of sum of eigenvalues  :  0.2049E+00 eV
  | Change of total energy        :  0.1016E-02 eV

  End self-consistency iteration #     6       :  max(cpu_time)    wall_clock(cpu1)
  | Time for this iteration                    :        1.186 s           1.187 s
  | Charge density update                      :        0.387 s           0.387 s
  | Density mixing                             :        0.012 s           0.012 s
  | Hartree multipole update                   :        0.009 s           0.009 s
  | Hartree multipole summation                :        0.283 s           0.283 s
  | Integration                                :        0.493 s           0.493 s
  | Solution of K.-S. eqns.                    :        0.002 s           0.002 s
  | Total energy evaluation                    :        0.000 s           0.000 s

  Partial memory accounting:
  | Current value for overall tracked memory usage on task 0  :           0.166 MB
  | Peak value for overall tracked memory usage on task 0     :           0.696 MB after allocating gradient_basis_wave
  | Largest tracked array allocation on task 0 so far         :           0.397 MB  when allocating gradient_basis_wave
  Note:  These values currently only include a subset of arrays which are explicitly tracked.
  The "true" memory usage will be greater.
------------------------------------------------------------

------------------------------------------------------------
          Begin self-consistency iteration #    7

  Date     :  20200815, Time     :  004532.880
------------------------------------------------------------
  Evaluating new KS density.
  Integration grid: deviation in total charge (<rho> - N_e) =   3.552714E-14
  Pulay mixing of updated and previous charge densities.

  Evaluating partitioned Hartree potential by multipole expansion.
  | Analytical far-field extrapolation by fixed multipoles:
  | Hartree multipole sum: apparent total charge =  -0.446986E-03
  Summing up the Hartree potential.
  Time summed over all CPUs for potential: real work        0.290 s, elapsed        0.290 s
  | RMS charge density error from multipole expansion :   0.257886E-01

  Integrating Hamiltonian matrix: batch-based integration.
  Time summed over all CPUs for integration: real work        0.493 s, elapsed        0.493 s

  Updating Kohn-Sham eigenvalues and eigenvectors using ELSI and the ELPA eigensolver.
  Finished Cholesky decomposition
  | Time :     0.000 s
  Finished transformation to standard eigenproblem
  | Time :     0.000 s
  Starting LAPACK eigensolver
  Finished solving standard eigenproblem
  | Time :     0.002 s
  Finished back-transformation of eigenvectors
  | Time :     0.000 s

[...]
  |   Hirshfeld dipole moment :      0.06137613
  |   Hirshfeld second moments:      0.01946990      -0.02270003      -0.01514975
  |                                 -0.02270003      -0.02173816       0.00620417
  |                                 -0.01514975       0.00620417      -0.02187322
  ----------------------------------------------------------------------
  | Atom    12: O
  |   Hirshfeld charge        :     -0.15004064
  |   Free atom volume        :     23.61338643
  |   Hirshfeld volume        :     20.60285857
  |   Hirshfeld dipole vector :      0.00632750       0.02175997       0.02611952
  |   Hirshfeld dipole moment :      0.03457980
  |   Hirshfeld second moments:      0.10016049       0.01786788      -0.02733373
  |                                  0.01786788       0.04913444      -0.00343107
  |                                 -0.02733373      -0.00343107       0.04664691
  ----------------------------------------------------------------------
  | Atom    13: H
  |   Hirshfeld charge        :      0.18544386
  |   Free atom volume        :      9.95071624
  |   Hirshfeld volume        :      6.11169029
  |   Hirshfeld dipole vector :     -0.10947752      -0.01320353       0.06151041
  |   Hirshfeld dipole moment :      0.12626635
  |   Hirshfeld second moments:      0.12239387       0.00378249      -0.00793156
  |                                  0.00378249       0.12371934       0.00105394
  |                                 -0.00793156       0.00105394       0.10101093
  ----------------------------------------------------------------------


  Total energy components:
  | Sum of eigenvalues            :        -180.63198182 Ha       -4915.24631042 eV
  | XC energy correction          :         -42.64183958 Ha       -1160.34349258 eV
  | XC potential correction       :          54.82309830 Ha        1491.81240721 eV
  | Free-atom electrostatic energy:        -146.85024013 Ha       -3995.99834808 eV
  | Hartree energy correction     :          -8.18553926 Ha        -222.73985623 eV
  | vdW energy correction         :          -0.00330956 Ha          -0.09005757 eV
  | Entropy correction            :           0.00000000 Ha           0.00000000 eV
  | ---------------------------
  | Total energy                  :        -323.48981206 Ha       -8802.60565767 eV
  | Total energy, T -> 0          :        -323.48981206 Ha       -8802.60565767 eV  <-- do not rely on this value for anything but (periodic) metals
  | Electronic free energy        :        -323.48981206 Ha       -8802.60565767 eV

  Derived energy quantities:
  | Kinetic energy                :         322.58704643 Ha        8778.04015513 eV
  | Electrostatic energy          :        -603.43170935 Ha      -16420.21226265 eV
  | Energy correction for multipole
  | error in Hartree potential    :           0.04157437 Ha           1.13129629 eV
  | Sum of eigenvalues per atom                           :        -378.09587003 eV
  | Total energy (T->0) per atom                          :        -677.12351213 eV  <-- do not rely on this value for anything but (periodic) metals
  | Electronic free energy per atom                       :        -677.12351213 eV

  atomic forces [eV/Ang]:
  -----------------------
  atom #    1
   Hellmann-Feynman              :  0.623243E+00 -0.577990E+00  0.593578E+00
   Ionic forces                  :  0.000000E+00  0.000000E+00  0.000000E+00
   Multipole                     : -0.361939E-01  0.343505E+00 -0.249361E+00
   Pulay + GGA                   : -0.106740E+01  0.870305E-01 -0.119736E+01
   Van der Waals                 :  0.531366E-02  0.478184E-02 -0.279725E-02
   ----------------------------------------------------------------
   Total forces(   1)            : -0.475039E+00 -0.142673E+00 -0.855939E+00
  atom #    2
   Hellmann-Feynman              :  0.365733E+00  0.246994E-01  0.530745E-01
   Ionic forces                  :  0.000000E+00  0.000000E+00  0.000000E+00
   Multipole                     :  0.173170E+00  0.397827E-01 -0.382658E-01
   Pulay + GGA                   : -0.155461E+00  0.296860E-01 -0.143731E-01
   Van der Waals                 :  0.602239E-02 -0.206328E-02 -0.515557E-02
   ----------------------------------------------------------------
   Total forces(   2)            :  0.389465E+00  0.921048E-01 -0.471996E-02
  atom #    3
   Hellmann-Feynman              :  0.826609E+01  0.518659E+01 -0.528814E+01
   Ionic forces                  :  0.000000E+00  0.000000E+00  0.000000E+00
   Multipole                     : -0.165487E+00  0.147478E+00 -0.113151E+01
   Pulay + GGA                   : -0.726886E+01 -0.502237E+01  0.700310E+01
   Van der Waals                 :  0.189370E-02 -0.805763E-02 -0.560720E-02
   ----------------------------------------------------------------
   Total forces(   3)            :  0.833637E+00  0.303637E+00  0.577850E+00
  atom #    4
   Hellmann-Feynman              : -0.235788E+00  0.372875E-01 -0.127500E+00
   Ionic forces                  :  0.000000E+00  0.000000E+00  0.000000E+00
   Multipole                     : -0.508640E-01 -0.705338E-01 -0.774612E-01
   Pulay + GGA                   :  0.518103E-01  0.221254E+00  0.570861E-01
   Van der Waals                 : -0.425246E-02  0.188113E-02  0.254711E-02
   ----------------------------------------------------------------
   Total forces(   4)            : -0.239094E+00  0.189889E+00 -0.145328E+00
  atom #    5
   Hellmann-Feynman              : -0.373812E+00 -0.170384E+00 -0.239763E-01
   Ionic forces                  :  0.000000E+00  0.000000E+00  0.000000E+00
   Multipole                     : -0.936339E-01  0.253665E-01 -0.523937E-01
   Pulay + GGA                   :  0.232611E+00 -0.511781E-01 -0.433552E-01
   Van der Waals                 : -0.189061E-02 -0.384785E-02 -0.739330E-02
   ----------------------------------------------------------------
   Total forces(   5)            : -0.236726E+00 -0.200043E+00 -0.127119E+00
  atom #    6
   Hellmann-Feynman              :  0.117623E+00 -0.394759E+00  0.260941E+00
   Ionic forces                  :  0.000000E+00  0.000000E+00  0.000000E+00
   Multipole                     : -0.130010E+00  0.600767E+00  0.278307E+00
   Pulay + GGA                   :  0.269203E+00 -0.677754E+00 -0.448185E+00
   Van der Waals                 : -0.306854E-02  0.317061E-02 -0.311958E-02
   ----------------------------------------------------------------
   Total forces(   6)            :  0.253749E+00 -0.468575E+00  0.879439E-01
  atom #    7
   Hellmann-Feynman              : -0.259941E+00 -0.546791E-01 -0.389459E-01
   Ionic forces                  :  0.000000E+00  0.000000E+00  0.000000E+00
   Multipole                     : -0.118884E+00  0.483260E-01  0.351411E-01
   Pulay + GGA                   :  0.105119E+00  0.197905E-01  0.234479E-01
   Van der Waals                 : -0.255124E-02  0.251860E-02  0.776717E-02
   ----------------------------------------------------------------
   Total forces(   7)            : -0.276257E+00  0.159560E-01  0.274102E-01
  atom #    8
   Hellmann-Feynman              :  0.635806E-01 -0.278223E-01  0.136257E+00
   Ionic forces                  :  0.000000E+00  0.000000E+00  0.000000E+00
   Multipole                     :  0.115194E-01  0.634753E-01  0.126497E+00
   Pulay + GGA                   : -0.410005E-01 -0.433220E-01 -0.111054E+00
   Van der Waals                 : -0.318927E-02  0.111939E-01  0.943232E-03
   ----------------------------------------------------------------
   Total forces(   8)            :  0.309103E-01  0.352497E-02  0.152644E+00
  atom #    9
   Hellmann-Feynman              :  0.103447E+00  0.443927E-01 -0.193080E+00
   Ionic forces                  :  0.000000E+00  0.000000E+00  0.000000E+00
   Multipole                     :  0.201346E-01  0.129702E+00 -0.875131E-02
   Pulay + GGA                   : -0.357111E-01 -0.109095E+00  0.340175E-01
   Van der Waals                 : -0.583415E-03  0.630234E-02  0.693975E-02
   ----------------------------------------------------------------
   Total forces(   9)            :  0.872870E-01  0.713020E-01 -0.160874E+00
  atom #   10
   Hellmann-Feynman              :  0.340635E+01  0.595122E+01  0.172676E+01
   Ionic forces                  :  0.000000E+00  0.000000E+00  0.000000E+00
   Multipole                     :  0.814513E-01 -0.984857E-01  0.187480E+00
   Pulay + GGA                   : -0.128819E+01 -0.363725E+01 -0.513022E+00
   Van der Waals                 :  0.475552E-02 -0.163030E-01  0.550500E-02
   ----------------------------------------------------------------
   Total forces(  10)            :  0.220436E+01  0.219919E+01  0.140672E+01
  atom #   11
   Hellmann-Feynman              :  0.419947E+01 -0.224743E+01  0.139693E+02
   Ionic forces                  :  0.000000E+00  0.000000E+00  0.000000E+00
   Multipole                     : -0.175502E-01 -0.621497E+00  0.820102E+00
   Pulay + GGA                   : -0.359503E+01  0.355976E+01 -0.133363E+02
   Van der Waals                 : -0.295814E-02 -0.116485E-01  0.102197E-02
   ----------------------------------------------------------------
   Total forces(  11)            :  0.583930E+00  0.679188E+00  0.145406E+01
  atom #   12
   Hellmann-Feynman              : -0.158284E+00 -0.522509E+01 -0.156433E+02
   Ionic forces                  :  0.000000E+00  0.000000E+00  0.000000E+00
   Multipole                     : -0.636200E+00 -0.125520E+01 -0.606966E+00
   Pulay + GGA                   : -0.198319E+01  0.501316E+01  0.139122E+02
   Van der Waals                 : -0.162224E-03  0.654524E-02  0.441291E-02
   ----------------------------------------------------------------
   Total forces(  12)            : -0.277784E+01 -0.146059E+01 -0.233365E+01
  atom #   13
   Hellmann-Feynman              : -0.604984E+00 -0.131504E+01  0.134864E+00
   Ionic forces                  :  0.000000E+00  0.000000E+00  0.000000E+00
   Multipole                     : -0.841223E-01 -0.234334E-02  0.243840E-01
   Pulay + GGA                   :  0.305070E+00  0.282368E-01 -0.234249E+00
   Van der Waals                 :  0.670623E-03  0.552663E-02 -0.506425E-02
   ----------------------------------------------------------------
   Total forces(  13)            : -0.383365E+00 -0.128362E+01 -0.800657E-01

  Timings for VdW correction (Tkatchenko-Scheffler 2009 or later):
  | CPU time:        0.089 s, Wall clock time:        0.090 s.
  Removing unitary transformations (pure translations, rotations) from forces on atoms.
  Atomic forces before filtering:
  | Net force on center of mass :  -0.497523E-02 -0.705402E-03 -0.107189E-02 eV/A
  | Net torque on center of mass:  -0.620027E-02  0.412868E-02  0.165925E-02 eV
  Atomic forces after filtering:
  | Net force on center of mass :   0.892031E-16 -0.535218E-15  0.434865E-15 eV/A
  | Net torque on center of mass:  -0.283225E-15  0.649058E-15 -0.160494E-14 eV

  Energy and forces in a compact form:
  | Total energy uncorrected      :         -0.880260565767269E+04 eV
  | Total energy corrected        :         -0.880260565767269E+04 eV  <-- do not rely on this value for anything but (periodic) metals
  | Electronic free energy        :         -0.880260565767269E+04 eV
  Total atomic forces (unitary forces cleaned) [eV/Ang]:
  |   1         -0.474621538560787E+00         -0.142620002435901E+00         -0.855748173417202E+00
  |   2          0.389882830035631E+00          0.921051580535861E-01         -0.435069429097752E-02
  |   3          0.834285196996156E+00          0.303913735805480E+00          0.577962167530263E+00
  |   4         -0.238443432974408E+00          0.190215203225982E+00         -0.145374453653969E+00
  |   5         -0.236046317409391E+00         -0.199717495546935E+00         -0.127078125096797E+00
  |   6          0.254107676088881E+00         -0.468602728784720E+00          0.882336914545714E-01
  |   7         -0.275899730464215E+00          0.159787029160205E-01          0.275256162969566E-01
  |   8          0.311015849589644E-01          0.333333074087185E-02          0.152994337120551E+00
  |   9          0.877714573851669E-01          0.713292051093931E-01         -0.160397098426100E+00
  |  10          0.220459754530325E+01          0.219915314730265E+01          0.140666441391872E+01
  |  11          0.583965225361849E+00          0.678977636508045E+00          0.145400776098768E+01
  |  12         -0.277753263630388E+01         -0.146049171187494E+01         -0.233394569156654E+01
  |  13         -0.383167860417215E+00         -0.128357418101953E+01         -0.804937508571618E-01

  ------------------------------------ 
  Start decomposition of the XC Energy 
  ------------------------------------ 
  X and C from original XC functional choice 
  Hartree-Fock Energy :          0.000000000 Ha              0.000000000 eV
  X Energy            :        -41.040802666 Ha          -1116.777061531 eV
  C Energy            :         -1.601036913 Ha            -43.566431052 eV
  Total XC Energy     :        -42.641839579 Ha          -1160.343492583 eV
  ------------------------------------ 
  LDA X and C from self-consistent density 
  X Energy LDA        :        -37.260385669 Ha          -1013.906681051 eV
  C Energy LDA        :         -3.138837864 Ha            -85.412124003 eV
  ------------------------------------ 
  End decomposition of the XC Energy 
  ------------------------------------ 

------------------------------------------------------------

------------------------------------------------------------------------------
  Final output of selected total energy values:

  The following output summarizes some interesting total energy values
  at the end of a run (AFTER all relaxation, molecular dynamics, etc.).

  | Total energy of the DFT / Hartree-Fock s.c.f. calculation      :          -8802.605657673 eV
  | Final zero-broadening corrected energy (caution - metals only) :          -8802.605657673 eV
  | For reference only, the value of 1 Hartree used in FHI-aims is :             27.211384500 eV

  Before relying on these values, please be sure to understand exactly which
  total energy value is referred to by a given number. Different objects may
  all carry the same name 'total energy'. Definitions:

  Total energy of the DFT / Hartree-Fock s.c.f. calculation:
  | Note that this energy does not include ANY quantities calculated after the
  | s.c.f. cycle, in particular not ANY RPA, MP2, etc. many-body perturbation terms.

  Final zero-broadening corrected energy:
  | For metallic systems only, a broadening of the occupation numbers at the Fermi
  | level can be extrapolated back to zero broadening by an electron-gas inspired
  | formula. For all systems that are not real metals, this value can be
  | meaningless and should be avoided.

------------------------------------------------------------------------------
  Methods described in the following list of references were used in this FHI-aims run.
  If you publish the results, please make sure to cite these reference if they apply.
  FHI-aims is an academic code, and for our developers (often, Ph.D. students
  and postdocs), scientific credit in the community is essential.
  Thank you for helping us!

  For any use of FHI-aims, please cite:

    Volker Blum, Ralf Gehrke, Felix Hanke, Paula Havu, Ville Havu,
    Xinguo Ren, Karsten Reuter, and Matthias Scheffler
    'Ab initio molecular simulations with numeric atom-centered orbitals'
    Computer Physics Communications 180, 2175-2196 (2009)
    http://dx.doi.org/10.1016/j.cpc.2009.06.022


  The scalable eigensolver library ELPA was used in your run.
  ELPA is essential especially for large systems on hundreds or thousands of CPUs.
  For ELPA, please cite:

    Andreas Marek, Volker Blum, Rainer Johanni, Ville Havu, Bruno Lang,
    Thomas Auckenthaler, Alexander Heinecke, Hans-Joachim Bungartz, and Hermann Lederer,
    'The ELPA Library - Scalable Parallel Eigenvalue Solutions
    for Electronic Structure Theory and Computational Science'
    The Journal of Physics: Condensed Matter 26, 213201 (2014).
    http://dx.doi.org/10.1088/0953-8984/26/21/213201


  The ELSI infrastructure was used in your run to solve the Kohn-Sham electronic structure.
  Please check out http://elsi-interchange.org to learn more.
  If scalability is important for your project, please acknowledge ELSI by citing:

    V. W-z. Yu, F. Corsetti, A. Garcia, W. P. Huhn, M. Jacquelin, W. Jia,
    B. Lange, L. Lin, J. Lu, W. Mi, A. Seifitokaldani, A. Vazquez-Mayagoitia,
    C. Yang, H. Yang, and V. Blum
    'ELSI: A unified software interface for Kohn-Sham electronic structure solvers'
    Computer Physics Communications 222, 267-285 (2018).
    http://dx.doi.org/10.1016/j.cpc.2017.09.007


  For the real-space grid partitioning and parallelization used in this calculation, please cite:

    Ville Havu, Volker Blum, Paula Havu, and Matthias Scheffler,
    'Efficient O(N) integration for all-electron electronic structure calculation'
    'using numerically tabulated basis functions'
    Journal of Computational Physics 228, 8367-8379 (2009).
    http://dx.doi.org/10.1016/j.jcp.2009.08.008

  Of course, there are many other important community references, e.g., those cited in the
  above references. Our list is limited to references that describe implementations in the
  FHI-aims code. The reason is purely practical (length of this list) - please credit others as well.

------------------------------------------------------------
          Leaving FHI-aims.
          Date     :  20200815, Time     :  004547.138

          Computational steps:
          | Number of self-consistency cycles          :           16
          | Number of SCF (re)initializations          :            1

          Detailed time accounting                     :  max(cpu_time)    wall_clock(cpu1)
          | Total time                                 :       22.638 s          22.690 s
          | Preparation time                           :        0.145 s           0.147 s
          | Boundary condition initalization           :        0.000 s           0.000 s
          | Grid partitioning                          :        0.110 s           0.111 s
          | Preloading free-atom quantities on grid    :        0.002 s           0.002 s
          | Free-atom superposition energy             :        0.084 s           0.085 s
          | Total time for integrations                :        8.594 s           8.596 s
          | Total time for solution of K.-S. equations :        0.036 s           0.036 s
          | Total time for density & force components  :        7.141 s           7.154 s
          | Total time for mixing                      :        0.212 s           0.217 s
          | Total time for Hartree multipole update    :        0.139 s           0.139 s
          | Total time for Hartree multipole sum       :        5.776 s           5.794 s
          | Total time for total energy evaluation     :        0.003 s           0.002 s
          | Total time for vdW correction              :        0.089 s           0.090 s

          Partial memory accounting:
          | Residual value for overall tracked memory usage across tasks :           0.000 MB (should be 0.000 MB)
          | Peak values for overall tracked memory usage (after allocating hessian_basis_wave):
          |   Minimum:        1.622 MB (on task 1)
          |   Maximum:        1.622 MB (on task 1)
          |   Average:        1.622 MB
          | Largest tracked array allocation (hessian_basis_wave):
          |   Minimum:        0.794 MB (on task 1)
          |   Maximum:        0.794 MB (on task 1)
          |   Average:        0.794 MB
          Note:  These values currently only include a subset of arrays which are explicitly tracked.
          The "true" memory usage will be greater.

          Have a nice day.
------------------------------------------------------------
