  MPI-parallelism will be employed.
------------------------------------------------------------
          Invoking FHI-aims ...
          Version 171221_1
          Compiled on 2019/09/09 at 14:39:39 on host puhti-login2.bullx.

          When using FHI-aims, please cite the following reference:

          Volker Blum, Ralf Gehrke, Felix Hanke, Paula Havu,
          Ville Havu, Xinguo Ren, Karsten Reuter, and Matthias Scheffler,
          'Ab Initio Molecular Simulations with Numeric Atom-Centered Orbitals',
          Computer Physics Communications 180, 2175-2196 (2009)

          For any questions about FHI-aims, please visit the aimsclub website
          with its forums and wiki. Contributions to both the forums and the
          wiki are warmly encouraged - they are for you, and everyone is welcome there.

------------------------------------------------------------



  Date     :  20200616, Time     :  064407.199
  Time zero on CPU 1             :   0.296380000000000E-01  s.
  Internal wall clock time zero  :           361521847.199  s.

  FHI-aims created a unique identifier for this run for later identification
  aims_uuid : 5A661D18-BDD7-4DBF-AA07-66494E00474E

  Using       20 parallel tasks.
  Task        0 on host r06c54.bullx reporting.
  Task        1 on host r06c54.bullx reporting.
  Task        2 on host r06c54.bullx reporting.
  Task        3 on host r06c54.bullx reporting.
  Task        4 on host r06c54.bullx reporting.
  Task        5 on host r06c54.bullx reporting.
  Task        6 on host r06c54.bullx reporting.
  Task        7 on host r06c54.bullx reporting.
  Task        8 on host r06c54.bullx reporting.
  Task        9 on host r06c54.bullx reporting.
  Task       10 on host r06c54.bullx reporting.
  Task       11 on host r06c54.bullx reporting.
  Task       12 on host r06c54.bullx reporting.
  Task       13 on host r06c54.bullx reporting.
  Task       14 on host r06c54.bullx reporting.
  Task       15 on host r06c54.bullx reporting.
  Task       16 on host r06c54.bullx reporting.
  Task       17 on host r06c54.bullx reporting.
  Task       18 on host r06c54.bullx reporting.
  Task       19 on host r06c54.bullx reporting.

  Performing system and environment tests:
  | Environment variable OMP_NUM_THREADS correctly set to 1.
  | Stacksize not measured: no C compiler
  | Checking for scalapack...
  | Testing pdtran()...
  | All pdtran() tests passed.

  Obtaining array dimensions for all initial allocations:
  
  -----------------------------------------------------------------------
  Parsing control.in (first pass over file, find array dimensions only).
  The contents of control.in will be repeated verbatim below
  unless switched off by setting 'verbatim_writeout .false.' .
  in the first line of control.in .
  -----------------------------------------------------------------------
  
  #########################################################################################
  #
  #  Volker Blum, FHI 2009 : Test run input file control.in for simple H2O
  #
  #########################################################################################
  #
  #  Physical model
  #
    xc                 pbe
    vdw_correction_hirshfeld
    spin               none
    relativistic       none
    charge             0.
  #
  #  SCF convergence
  #
    occupation_type    gaussian 0.01
    mixer              pulay
      n_max_pulay        10
      charge_mix_param   0.2
    sc_accuracy_rho    1E-5
    sc_accuracy_eev    1E-3
    sc_accuracy_etot   1E-6
    sc_accuracy_forces 1E-4
    sc_iter_limit      100
  #
  #  Relaxation
  #
  #  relax_geometry   bfgs 1.e-3
  #
  ################################################################################
  #
  #  FHI-aims code project
  #  VB, Fritz-Haber Institut, 2009
  #
  #  Suggested "light" defaults for H atom (to be pasted into control.in file)
  #  Be sure to double-check any results obtained with these settings for post-processing,
  #  e.g., with the "tight" defaults and larger basis sets.
  #
  ################################################################################
    species        H
  #     global species definitions
      nucleus             1
      mass                1.00794
  #
      l_hartree           4
  #
      cut_pot             3.5  1.5  1.0
      basis_dep_cutoff    1e-4
  #
      radial_base         24 5.0
      radial_multiplier   1
      angular_grids       specified
        division   0.2421   50
        division   0.3822  110
        division   0.4799  194
        division   0.5341  302
  #      division   0.5626  434
  #      division   0.5922  590
  #      division   0.6542  770
  #      division   0.6868 1202
  #      outer_grid  770
        outer_grid  302
  ################################################################################
  #
  #  Definition of "minimal" basis
  #
  ################################################################################
  #     valence basis states
      valence      1  s   1.
  #     ion occupancy
      ion_occ      1  s   0.5
  ################################################################################
  #
  #  Suggested additional basis functions. For production calculations,
  #  uncomment them one after another (the most important basis functions are
  #  listed first).
  #
  #  Basis constructed for dimers: 0.5 A, 0.7 A, 1.0 A, 1.5 A, 2.5 A
  #
  ################################################################################
  #  "First tier" - improvements: -1014.90 meV to -62.69 meV
       hydro 2 s 2.1
       hydro 2 p 3.5
  #  "Second tier" - improvements: -12.89 meV to -1.83 meV
  #     hydro 1 s 0.85
  #     hydro 2 p 3.7
  #     hydro 2 s 1.2
  #     hydro 3 d 7
  #  "Third tier" - improvements: -0.25 meV to -0.12 meV
  #     hydro 4 f 11.2
  #     hydro 3 p 4.8
  #     hydro 4 d 9
  #     hydro 3 s 3.2
  ################################################################################
  #
  #  FHI-aims code project
  #  VB, Fritz-Haber Institut, 2009
  #
  #  Suggested "light" defaults for C atom (to be pasted into control.in file)
  #  Be sure to double-check any results obtained with these settings for post-processing,
  #  e.g., with the "tight" defaults and larger basis sets.
  #
  ################################################################################
    species        C
  #     global species definitions
      nucleus             6
      mass                12.0107
  #
      l_hartree           4
  #
      cut_pot             3.5  1.5  1.0
      basis_dep_cutoff    1e-4
  #
      radial_base         34 5.0
      radial_multiplier   1
      angular_grids specified
        division   0.3326   50
        division   0.5710  110
        division   0.7727  194
        division   0.8772  302
  #      division   0.9334  434
  #      division   0.9625  590
  #      division   0.9924  770
  #      division   1.0230  974
  #      division   1.4589 1202
  #     outer_grid  974
       outer_grid 302
  ################################################################################
  #
  #  Definition of "minimal" basis
  #
  ################################################################################
  #     valence basis states
      valence      2  s   2.
      valence      2  p   2.
  #     ion occupancy
      ion_occ      2  s   1.
      ion_occ      2  p   1.
  ################################################################################
  #
  #  Suggested additional basis functions. For production calculations,
  #  uncomment them one after another (the most important basis functions are
  #  listed first).
  #
  #  Constructed for dimers: 1.0 A, 1.25 A, 1.5 A, 2.0 A, 3.0 A
  #
  ################################################################################
  #  "First tier" - improvements: -1214.57 meV to -155.61 meV
       hydro 2 p 1.7
       hydro 3 d 6
       hydro 2 s 4.9
  #  "Second tier" - improvements: -67.75 meV to -5.23 meV
  #     hydro 4 f 9.8
  #     hydro 3 p 5.2
  #     hydro 3 s 4.3
  #     hydro 5 g 14.4
  #     hydro 3 d 6.2
  #  "Third tier" - improvements: -2.43 meV to -0.60 meV
  #     hydro 2 p 5.6
  #     hydro 2 s 1.4
  #     hydro 3 d 4.9
  #     hydro 4 f 11.2
  #  "Fourth tier" - improvements: -0.39 meV to -0.18 meV
  #     hydro 2 p 2.1
  #     hydro 5 g 16.4
  #     hydro 4 d 13.2
  #     hydro 3 s 13.6
  #     hydro 4 f 17.6
  #  Further basis functions - improvements: -0.08 meV and below
  #     hydro 3 s 2
  #     hydro 3 p 6
  #     hydro 4 d 20
  ################################################################################
  #
  #  FHI-aims code project
  #  VB, Fritz-Haber Institut, 2009
  #
  #  Suggested "light" defaults for N atom (to be pasted into control.in file)
  #  Be sure to double-check any results obtained with these settings for post-processing,
  #  e.g., with the "tight" defaults and larger basis sets.
  #
  ################################################################################
    species        N
  #     global species definitions
      nucleus             7
      mass                14.0067
  #
      l_hartree           4
  #
      cut_pot             3.5  1.5  1.0
      basis_dep_cutoff    1e-4
  #
      radial_base         35 5.0
      radial_multiplier   1
      angular_grids       specified
        division   0.2599   50
        division   0.4601  110
        division   0.5885  194
        division   0.6503  302
  #      division   0.6939  434
  #      division   0.7396  590
  #      division   0.7632  770
  #      division   0.8122  974
  #      division   1.1604 1202
  #      outer_grid  974
        outer_grid  302
  ################################################################################
  #
  #  Definition of "minimal" basis
  #
  ################################################################################
  #     valence basis states
      valence      2  s   2.
      valence      2  p   3.
  #     ion occupancy
      ion_occ      2  s   1.
      ion_occ      2  p   2.
  ################################################################################
  #
  #  Suggested additional basis functions. For production calculations,
  #  uncomment them one after another (the most important basis functions are
  #  listed first).
  #
  #  Constructed for dimers: 1.0 A, 1.1 A, 1.5 A, 2.0 A, 3.0 A
  #
  ################################################################################
  #  "First tier" - improvements: -1193.42 meV to -220.60 meV
       hydro 2 p 1.8
       hydro 3 d 6.8
       hydro 3 s 5.8
  #  "Second tier" - improvements: -80.21 meV to -6.86 meV
  #     hydro 4 f 10.8
  #     hydro 3 p 5.8
  #     hydro 1 s 0.8
  #     hydro 5 g 16
  #     hydro 3 d 4.9
  #  "Third tier" - improvements: -4.29 meV to -0.53 meV
  #     hydro 3 s 16
  #     ionic 2 p auto
  #     hydro 3 d 6.6
  #     hydro 4 f 11.6
  #  "Fourth tier" - improvements: -0.75 meV to -0.25 meV
  #     hydro 2 p 4.5
  #     hydro 2 s 2.4
  #     hydro 5 g 14.4
  #     hydro 4 d 14.4
  #     hydro 4 f 16.8
  # Further basis functions - -0.21 meV and below
  #     hydro 3 p 14.8
  #     hydro 3 s 4.4
  #     hydro 3 d 19.6
  #     hydro 5 g 12.8
  ################################################################################
  #
  #  FHI-aims code project
  #  VB, Fritz-Haber Institut, 2009
  #
  #  Suggested "light" defaults for O atom (to be pasted into control.in file)
  #  Be sure to double-check any results obtained with these settings for post-processing,
  #  e.g., with the "tight" defaults and larger basis sets.
  #
  ################################################################################
    species        O
  #     global species definitions
      nucleus             8
      mass                15.9994
  #
      l_hartree           4
  #
      cut_pot             3.5  1.5  1.0
      basis_dep_cutoff    1e-4
  #
      radial_base         36 5.0
      radial_multiplier   1
       angular_grids specified
        division   0.2659   50
        division   0.4451  110
        division   0.6052  194
        division   0.7543  302
  #      division   0.8014  434
  #      division   0.8507  590
  #      division   0.8762  770
  #      division   0.9023  974
  #      division   1.2339 1202
  #      outer_grid 974
        outer_grid 302
  ################################################################################
  #
  #  Definition of "minimal" basis
  #
  ################################################################################
  #     valence basis states
      valence      2  s   2.
      valence      2  p   4.
  #     ion occupancy
      ion_occ      2  s   1.
      ion_occ      2  p   3.
  ################################################################################
  #
  #  Suggested additional basis functions. For production calculations,
  #  uncomment them one after another (the most important basis functions are
  #  listed first).
  #
  #  Constructed for dimers: 1.0 A, 1.208 A, 1.5 A, 2.0 A, 3.0 A
  #
  ################################################################################
  #  "First tier" - improvements: -699.05 meV to -159.38 meV
       hydro 2 p 1.8
       hydro 3 d 7.6
       hydro 3 s 6.4
  #  "Second tier" - improvements: -49.91 meV to -5.39 meV
  #     hydro 4 f 11.6
  #     hydro 3 p 6.2
  #     hydro 3 d 5.6
  #     hydro 5 g 17.6
  #     hydro 1 s 0.75
  #  "Third tier" - improvements: -2.83 meV to -0.50 meV
  #     ionic 2 p auto
  #     hydro 4 f 10.8
  #     hydro 4 d 4.7
  #     hydro 2 s 6.8
  #  "Fourth tier" - improvements: -0.40 meV to -0.12 meV
  #     hydro 3 p 5
  #     hydro 3 s 3.3
  #     hydro 5 g 15.6
  #     hydro 4 f 17.6
  #     hydro 4 d 14
  # Further basis functions - -0.08 meV and below
  #     hydro 3 s 2.1
  #     hydro 4 d 11.6
  #     hydro 3 p 16
  #     hydro 2 s 17.2
  
  -----------------------------------------------------------------------
  Completed first pass over input file control.in .
  -----------------------------------------------------------------------
  
  
  -----------------------------------------------------------------------
  Parsing geometry.in (first pass over file, find array dimensions only).
  The contents of geometry.in will be repeated verbatim below
  unless switched off by setting 'verbatim_writeout .false.' .
  in the first line of geometry.in .
  -----------------------------------------------------------------------
  
  atom  0.00000 0.00000 0.00000 C
  atom  1.09300 0.00000 0.00000 H
  atom  -0.47961 0.00000 -1.41207 N
  atom  0.32531 0.10482 -2.03090 H
  atom  -0.95273 -0.88218 -1.59657 H
  atom  -0.49584 1.26211 0.72868 C
  atom  0.07309 1.42006 1.64788 H
  atom  -0.37665 2.14175 0.09183 H
  atom  -1.55246 1.16249 0.98787 H
  atom  -0.39425 -1.28861 0.74398 C
  atom  0.34963 -1.98796 1.38959 O
  atom  -1.63910 -1.63406 0.65581 O
  atom  -1.98934 -0.80810 0.28152 H
  
  -----------------------------------------------------------------------
  Completed first pass over input file geometry.in .
  -----------------------------------------------------------------------
  

  Basic array size parameters:
  | Number of species                 :        4
  | Number of atoms                   :       13
  | Max. basis fn. angular momentum   :        2
  | Max. atomic/ionic basis occupied n:        2
  | Max. number of basis fn. types    :        2
  | Max. radial fns per species/type  :        3
  | Max. logarithmic grid size        :     1301
  | Max. radial integration grid size :       36
  | Max. angular integration grid size:      302
  | Max. angular grid division number :        8
  | Radial grid for Hartree potential :     1301
  | Number of spin channels           :        1

------------------------------------------------------------
          Reading file control.in.
------------------------------------------------------------
  XC: Using PBE gradient-corrected functionals.
  Spin treatment: No spin polarisation.
  Non-relativistic treatment of kinetic energy.
  Charge =   0.000000E+00: Neutral system requested explicitly.
  Occupation type: Gaussian broadening, width =   0.100000E-01 eV.
  Using pulay charge density mixing.
  Pulay mixing - number of memorized iterations:   10
  Charge density mixing - mixing parameter:     0.2000
  Convergence accuracy of self-consistent charge density:  0.1000E-04
  Convergence accuracy of sum of eigenvalues:  0.1000E-02
  Convergence accuracy of total energy:  0.1000E-05
  Convergence accuracy of forces:  0.1000E-03
  Maximum number of s.-c. iterations  :   100
 
  Reading configuration options for species H                   .
  | Found nuclear charge :   1.0000
  | Found atomic mass :    1.00794000000000      amu
  | Found l_max for Hartree potential  :   4
  | Found cutoff potl. onset [A], width [A], scale factor :    3.50000    1.50000    1.00000
  | Threshold for basis-dependent cutoff potential is   0.100000E-03
  | Found data for basic radial integration grid :    24 points, outermost radius =    5.000 A
  | Found multiplier for basic radial grid :   1
  | Found angular grid specification: user-specified.
  | Specified grid contains     5 separate shells.
  | Check grid settings after all constraints further below.
  | Found free-atom valence shell :  1 s   1.000
  | No ionic wave fns used. Skipping ion_occ.
  | Found hydrogenic basis function :  2 s   2.100
  | Found hydrogenic basis function :  2 p   3.500
  Species H                   : Missing cutoff potential type.
  Defaulting to exp(1/x)/(1-x)^2 type cutoff potential.
  Species H : No 'logarithmic' tag. Using default grid for free atom:
  | Default logarithmic grid data [bohr] : 0.1000E-03 0.1000E+03 0.1012E+01
  Species H : On-site basis accuracy parameter (for Gram-Schmidt orthonormalisation) not specified.
  Using default value basis_acc =  0.1000000E-03.
  Species H                   : Using default innermost maximum threshold i_radial=  2 for radial functions.
  Species H                   : Default cutoff onset for free atom density etc. : 0.35000000E+01 AA.
  Species H                   : Basic radial grid will be enhanced according to radial_multiplier =   1, to contain    24 grid points.
 
  Reading configuration options for species C                   .
  | Found nuclear charge :   6.0000
  | Found atomic mass :    12.0107000000000      amu
  | Found l_max for Hartree potential  :   4
  | Found cutoff potl. onset [A], width [A], scale factor :    3.50000    1.50000    1.00000
  | Threshold for basis-dependent cutoff potential is   0.100000E-03
  | Found data for basic radial integration grid :    34 points, outermost radius =    5.000 A
  | Found multiplier for basic radial grid :   1
  | Found angular grid specification: user-specified.
  | Specified grid contains     5 separate shells.
  | Check grid settings after all constraints further below.
  | Found free-atom valence shell :  2 s   2.000
  | Found free-atom valence shell :  2 p   2.000
  | No ionic wave fns used. Skipping ion_occ.
  | No ionic wave fns used. Skipping ion_occ.
  | Found hydrogenic basis function :  2 p   1.700
  | Found hydrogenic basis function :  3 d   6.000
  | Found hydrogenic basis function :  2 s   4.900
  Species C                   : Missing cutoff potential type.
  Defaulting to exp(1/x)/(1-x)^2 type cutoff potential.
  Species C : No 'logarithmic' tag. Using default grid for free atom:
  | Default logarithmic grid data [bohr] : 0.1000E-03 0.1000E+03 0.1012E+01
  Species C : On-site basis accuracy parameter (for Gram-Schmidt orthonormalisation) not specified.
  Using default value basis_acc =  0.1000000E-03.
  Species C                   : Using default innermost maximum threshold i_radial=  2 for radial functions.
  Species C                   : Default cutoff onset for free atom density etc. : 0.35000000E+01 AA.
  Species C                   : Basic radial grid will be enhanced according to radial_multiplier =   1, to contain    34 grid points.
 
  Reading configuration options for species N                   .
  | Found nuclear charge :   7.0000
  | Found atomic mass :    14.0067000000000      amu
  | Found l_max for Hartree potential  :   4
  | Found cutoff potl. onset [A], width [A], scale factor :    3.50000    1.50000    1.00000
  | Threshold for basis-dependent cutoff potential is   0.100000E-03
  | Found data for basic radial integration grid :    35 points, outermost radius =    5.000 A
  | Found multiplier for basic radial grid :   1
  | Found angular grid specification: user-specified.
  | Specified grid contains     5 separate shells.
  | Check grid settings after all constraints further below.
  | Found free-atom valence shell :  2 s   2.000
  | Found free-atom valence shell :  2 p   3.000
  | No ionic wave fns used. Skipping ion_occ.
  | No ionic wave fns used. Skipping ion_occ.
  | Found hydrogenic basis function :  2 p   1.800
  | Found hydrogenic basis function :  3 d   6.800
  | Found hydrogenic basis function :  3 s   5.800
  Species N                   : Missing cutoff potential type.
  Defaulting to exp(1/x)/(1-x)^2 type cutoff potential.
  Species N : No 'logarithmic' tag. Using default grid for free atom:
  | Default logarithmic grid data [bohr] : 0.1000E-03 0.1000E+03 0.1012E+01
  Species N : On-site basis accuracy parameter (for Gram-Schmidt orthonormalisation) not specified.
  Using default value basis_acc =  0.1000000E-03.
  Species N                   : Using default innermost maximum threshold i_radial=  2 for radial functions.
  Species N                   : Default cutoff onset for free atom density etc. : 0.35000000E+01 AA.
  Species N                   : Basic radial grid will be enhanced according to radial_multiplier =   1, to contain    35 grid points.
 
  Reading configuration options for species O                   .
  | Found nuclear charge :   8.0000
  | Found atomic mass :    15.9994000000000      amu
  | Found l_max for Hartree potential  :   4
  | Found cutoff potl. onset [A], width [A], scale factor :    3.50000    1.50000    1.00000
  | Threshold for basis-dependent cutoff potential is   0.100000E-03
  | Found data for basic radial integration grid :    36 points, outermost radius =    5.000 A
  | Found multiplier for basic radial grid :   1
  | Found angular grid specification: user-specified.
  | Specified grid contains     5 separate shells.
  | Check grid settings after all constraints further below.
  | Found free-atom valence shell :  2 s   2.000
  | Found free-atom valence shell :  2 p   4.000
  | No ionic wave fns used. Skipping ion_occ.
  | No ionic wave fns used. Skipping ion_occ.
  | Found hydrogenic basis function :  2 p   1.800
  | Found hydrogenic basis function :  3 d   7.600
  | Found hydrogenic basis function :  3 s   6.400
  Species O                   : Missing cutoff potential type.
  Defaulting to exp(1/x)/(1-x)^2 type cutoff potential.
  Species O : No 'logarithmic' tag. Using default grid for free atom:
  | Default logarithmic grid data [bohr] : 0.1000E-03 0.1000E+03 0.1012E+01
  Species O : On-site basis accuracy parameter (for Gram-Schmidt orthonormalisation) not specified.
  Using default value basis_acc =  0.1000000E-03.
  Species O                   : Using default innermost maximum threshold i_radial=  2 for radial functions.
  Species O                   : Default cutoff onset for free atom density etc. : 0.35000000E+01 AA.
  Species O                   : Basic radial grid will be enhanced according to radial_multiplier =   1, to contain    36 grid points.
 
  Finished reading input file 'control.in'. Consistency checks are next.
 
  MPI_IN_PLACE appears to work with this MPI implementation.
  | Keeping use_mpi_in_place .true. (see manual).
  Target number of points in a grid batch is not set. Defaulting to  100
  Method for grid partitioning is not set. Defaulting to parallel hash+maxmin partitioning.
  Batch size limit is not set. Defaulting to    200
  By default, will store active basis functions for each batch.
  If in need of memory, prune_basis_once .false. can be used to disable this option.
  communication_type for Hartree potential was not specified.
  Defaulting to calc_hartree .
  Pulay mixer: Number of initial linear mixing iterations not set.
  Defaulting to    0 iterations.
  Work space size for distributed Hartree potential not set.
  Defaulting to   0.200000E+03 MB.
  Algorithm-dependent basis array size parameters:
  | n_max_pulay                         :       10
  Presetting      1001 iterations before the initial mixing cycle
  is restarted anyway using the sc_init_iter criterion / keyword.
  Presetting a factor      1.000 between actual scf density residual
  and density convergence criterion sc_accuracy_rho below which sc_init_iter
  takes no effect.
  Geometry relaxation not requested: no relaxation will be performed.
  Handling of forces: Unphysical translation and rotation will be removed from forces.
  No accuracy limit for integral partition fn. given. Defaulting to  0.1000E-14.
  No threshold value for u(r) in integrations given. Defaulting to  0.1000E-05.
  No accuracy for occupation numbers given. Defaulting to  0.1000E-12.
  No threshold value for occupation numbers given. Defaulting to  0.0000E+00.
  No accuracy for fermi level given. Defaulting to  0.1000E-19.
  Maximum # of iterations to find E_F not set. Defaulting to  200.
  Preferred method for the eigenvalue solver ('KS_method') not specified in 'control.in'.
  Calling BLACS routine to test compilation state
  Since ScaLAPACK support is enabled, defaulting to 'elsi'.
  Will not use alltoall communication since running on < 1024 CPUs.
  Threshold for basis singularities not set.
  Default threshold for basis singularities:  0.1000E-04
  partition_type (choice of integration weights) for integrals was not specified.
  | Using a version of the partition function of Stratmann and coworkers ('stratmann_smoother').
  | At each grid point, the set of atoms used to build the partition table is smoothly restricted to
  | only those atoms whose free-atom density would be non-zero at that grid point.
  Partitioning for Hartree potential was not defined. Using partition_type for integrals.
  | Adjusted default value of keyword multip_moments_threshold to:       0.10000000E-11
  | This value may affect high angular momentum components of the Hartree potential in periodic systems.
  No q(lm)/r^(l+1) cutoff set for long-range Hartree potential.
  | Using default value of  0.100000E-09 .
  | Verify using the multipole_threshold keyword.
  Defaulting to new monopole extrapolation.
  Density update method: automatic selection selected.
------------------------------------------------------------


------------------------------------------------------------
          Reading geometry description geometry.in.
------------------------------------------------------------
  Input structure read successfully.
  The structure contains       13 atoms,  and a total of         48.000 electrons.

  Input geometry:
  | No unit cell requested.
  | Atomic structure:
  |       Atom                x [A]            y [A]            z [A]
  |    1: Species C             0.00000000        0.00000000        0.00000000
  |    2: Species H             1.09300000        0.00000000        0.00000000
  |    3: Species N            -0.47961000        0.00000000       -1.41207000
  |    4: Species H             0.32531000        0.10482000       -2.03090000
  |    5: Species H            -0.95273000       -0.88218000       -1.59657000
  |    6: Species C            -0.49584000        1.26211000        0.72868000
  |    7: Species H             0.07309000        1.42006000        1.64788000
  |    8: Species H            -0.37665000        2.14175000        0.09183000
  |    9: Species H            -1.55246000        1.16249000        0.98787000
  |   10: Species C            -0.39425000       -1.28861000        0.74398000
  |   11: Species O             0.34963000       -1.98796000        1.38959000
  |   12: Species O            -1.63910000       -1.63406000        0.65581000
  |   13: Species H            -1.98934000       -0.80810000        0.28152000
  |

  | The smallest distance between any two atoms is         0.97209618 AA.
  |
  | The first atom of this pair is atom number                     12 .
  | The second atom of this pair is atom number                    13 .

  Number of empty states per atom not set in control.in - providing a guess from actual geometry.
  | Total number of empty states used during s.c.f. cycle:       29
  If you use a very high smearing, use empty_states (per atom!) in control.in to increase this value.

  Structure-dependent array size parameters: 
  | Maximum number of distinct radial functions  :       21
  | Maximum number of basis functions            :      119
  | Number of Kohn-Sham states (occupied + empty):       53
------------------------------------------------------------

------------------------------------------------------------
          Preparing all fixed parts of the calculation.
------------------------------------------------------------
  Determining machine precision:
    2.225073858507201E-308
  Setting up grids for atomic and cluster calculations.

  Creating wave function, potential, and density for free atoms.

  Species: H

  List of occupied orbitals and eigenvalues:
    n    l              occ      energy [Ha]    energy [eV]
    1    0           1.0000        -0.237589        -6.4651


  Species: C

  List of occupied orbitals and eigenvalues:
    n    l              occ      energy [Ha]    energy [eV]
    1    0           2.0000       -10.038835      -273.1706
    2    0           2.0000        -0.502696       -13.6791
    2    1           2.0000        -0.191971        -5.2238


  Species: N

  List of occupied orbitals and eigenvalues:
    n    l              occ      energy [Ha]    energy [eV]
    1    0           2.0000       -14.128000      -384.4424
    2    0           2.0000        -0.681077       -18.5330
    2    1           3.0000        -0.259788        -7.0692


  Species: O

  List of occupied orbitals and eigenvalues:
    n    l              occ      energy [Ha]    energy [eV]
    1    0           2.0000       -18.898188      -514.2459
    2    0           2.0000        -0.878505       -23.9053
    2    1           4.0000        -0.331779        -9.0282

  Creating fixed part of basis set: Ionic, confined, hydrogenic.
 
  H                    hydrogenic:
 
  List of hydrogenic basis orbitals: 
    n    l      effective z      eigenvalue [eV]  inner max. [A]     outer max. [A]     outer radius [A]   
    2    0         2.100000       -14.9728           0.193243           1.317208           4.583499
    2    1         3.500000       -41.6669           0.602369           0.602369           3.723403
 
 
  C                    hydrogenic:
 
  List of hydrogenic basis orbitals: 
    n    l      effective z      eigenvalue [eV]  inner max. [A]     outer max. [A]     outer radius [A]   
    2    1         1.700000        -9.7616           1.230570           1.230570           4.607917
    3    2         6.000000       -54.4224           0.792453           0.792453           3.883070
    2    0         4.900000       -81.6679           0.082559           0.562749           3.078220
 
 
  N                    hydrogenic:
 
  List of hydrogenic basis orbitals: 
    n    l      effective z      eigenvalue [eV]  inner max. [A]     outer max. [A]     outer radius [A]   
    2    1         1.800000       -10.9749           1.177451           1.177451           4.573712
    3    2         6.800000       -69.9026           0.704619           0.704619           3.538137
    3    0         5.800000       -50.8545           0.067388           1.191934           4.250239
 
 
  O                    hydrogenic:
 
  List of hydrogenic basis orbitals: 
    n    l      effective z      eigenvalue [eV]  inner max. [A]     outer max. [A]     outer radius [A]   
    2    1         1.800000       -10.9749           1.164242           1.164242           4.578029
    3    2         7.600000       -87.3180           0.624125           0.624125           3.251020
    3    0         6.400000       -61.9207           0.061167           1.081902           4.001998
 

  Adding cutoff potential to free-atom effective potential.
  Creating atomic-like basis functions for current effective potential.

  Species H                   :

  List of atomic basis orbitals and eigenvalues:
    n    l      energy [Ha]    energy [eV]    outer radius [A]
    1    0        -0.237589        -6.4651       4.527807


  Species C                   :

  List of atomic basis orbitals and eigenvalues:
    n    l      energy [Ha]    energy [eV]    outer radius [A]
    1    0       -10.038835      -273.1706       1.934409
    2    0        -0.502696       -13.6791       4.496620
    2    1        -0.191971        -5.2238       4.551928


  Species N                   :

  List of atomic basis orbitals and eigenvalues:
    n    l      energy [Ha]    energy [eV]    outer radius [A]
    1    0       -14.128000      -384.4424       1.637919
    2    0        -0.681077       -18.5330       4.463241
    2    1        -0.259788        -7.0692       4.518138


  Species O                   :

  List of atomic basis orbitals and eigenvalues:
    n    l      energy [Ha]    energy [eV]    outer radius [A]
    1    0       -18.898188      -514.2459       1.415765
    2    0        -0.878505       -23.9053       4.413171
    2    1        -0.331779        -9.0282       4.522403

  Assembling full basis from fixed parts.
  | Species H :   atomic orbital   1 s accepted.
  | Species H :    hydro orbital   2 s accepted.
  | Species H :    hydro orbital   2 p accepted.
  | Species C :   atomic orbital   1 s accepted.
  | Species C :    hydro orbital   2 s accepted.
  | Species C :   atomic orbital   2 s accepted.
  | Species C :   atomic orbital   2 p accepted.
  | Species C :    hydro orbital   2 p accepted.
  | Species C :    hydro orbital   3 d accepted.
  | Species N :   atomic orbital   1 s accepted.
  | Species N :    hydro orbital   3 s accepted.
  | Species N :   atomic orbital   2 s accepted.
  | Species N :   atomic orbital   2 p accepted.
  | Species N :    hydro orbital   2 p accepted.
  | Species N :    hydro orbital   3 d accepted.
  | Species O :   atomic orbital   1 s accepted.
  | Species O :    hydro orbital   3 s accepted.
  | Species O :   atomic orbital   2 s accepted.
  | Species O :   atomic orbital   2 p accepted.
  | Species O :    hydro orbital   2 p accepted.
  | Species O :    hydro orbital   3 d accepted.
 
  Basis size parameters after reduction:
  | Total number of radial functions:       21
  | Total number of basis functions :      119
 
  Per-task memory consumption for arrays in subroutine allocate_ext:
  |           5.250512MB.
  Testing on-site integration grid accuracy.
  |  Species  Function  <phi|h_atom|phi> (log., in eV)  <phi|h_atom|phi> (rad., in eV)
           1        1                 -6.4663192853                 -6.4651273558
           1        2                 13.7111246313                 13.7170609718
           1        3                 25.2673269279                 25.2674696378
           2        4               -273.1705927641               -273.1705631568
           2        5                -10.7109323383                -10.7107120029
           2        6                 17.4381822266                 17.4352413244
           2        7                 -5.2255326521                 -5.2270484734
           2        8                  8.6835629259                  8.6603288385
           2        9                 27.4952418996                 27.4953360207
           3       10               -384.4424306495               -384.4423701208
           3       11                 12.5842251816                 12.5842222903
           3       12                -15.7264628251                -15.7264433455
           3       13                 -7.0696854293                 -7.0701769954
           3       14                  8.8090390882                  8.7901077751
           3       15                 35.9586762123                 35.9588528632
           4       16               -514.2458688638               -514.2457643834
           4       17                 15.1795651126                 15.1795290741
           4       18                -21.5359799773                -21.5360846186
           4       19                 -9.0283069236                 -9.0284644067
           4       20                  8.3027758564                  8.2834874195
           4       21                 45.8339351984                 45.8338762259

  Preparing densities etc. for the partition functions (integrals / Hartree potential).

  Preparations completed.
  max(cpu_time)          :      0.163 s.
  Wall clock time (cpu1) :      0.162 s.
------------------------------------------------------------

------------------------------------------------------------
          Begin self-consistency loop: Initialization.

          Date     :  20200616, Time     :  064407.403
------------------------------------------------------------

  Initializing index lists of integration centers etc. from given atomic structure:
  | Number of centers in hartree potential         :        13
  | Number of centers in hartree multipole         :        13
  | Number of centers in electron density summation:        13
  | Number of centers in basis integrals           :        13
  | Number of centers in integrals                 :        13
  | Number of centers in hamiltonian               :        13
  * Using 20 tasks for Scalapack Eigenvalue solver.
  Detailed listing of tasks and assigned k-points:
  (for non-periodic systems, the "k-point" denotes an internal label only)
   Task     0 k-point     1 on r06c54.bullx
   Task     1 k-point     1 on r06c54.bullx
   Task     2 k-point     1 on r06c54.bullx
   Task     3 k-point     1 on r06c54.bullx
   Task     4 k-point     1 on r06c54.bullx
   Task     5 k-point     1 on r06c54.bullx
   Task     6 k-point     1 on r06c54.bullx
   Task     7 k-point     1 on r06c54.bullx
   Task     8 k-point     1 on r06c54.bullx
   Task     9 k-point     1 on r06c54.bullx
   Task    10 k-point     1 on r06c54.bullx
   Task    11 k-point     1 on r06c54.bullx
   Task    12 k-point     1 on r06c54.bullx
   Task    13 k-point     1 on r06c54.bullx
   Task    14 k-point     1 on r06c54.bullx
   Task    15 k-point     1 on r06c54.bullx
   Task    16 k-point     1 on r06c54.bullx
   Task    17 k-point     1 on r06c54.bullx
   Task    18 k-point     1 on r06c54.bullx
   Task    19 k-point     1 on r06c54.bullx
  Tasks:    20 split into      5 X      4 BLACS grid
  Calculating block size based on n_basis =          119  max_nprow =            5  max_npcol =            4
  ScaLAPACK block size set to:           16
  Allocating        0.008 MB for ovlp
  Allocating        0.008 MB for ham
  Allocating        0.008 MB for eigenvec
  Required Scalapack workspace - INTEGER:            1  REAL:             1
  Partitioning the integration grid into batches with parallel hashing+maxmin method.
  | Number of batches:      910
  | Maximal batch size:     175
  | Minimal batch size:      49
  | Average batch size:      76.534
  | Standard deviation of batch sizes:      19.323

  Integration load balanced across    20 MPI tasks.
  Work distribution over tasks is as follows:
  Task     0 has       3526 integration points.
  Task     1 has       3525 integration points.
  Task     2 has       3452 integration points.
  Task     3 has       3451 integration points.
  Task     4 has       3441 integration points.
  Task     5 has       3423 integration points.
  Task     6 has       3523 integration points.
  Task     7 has       3510 integration points.
  Task     8 has       3508 integration points.
  Task     9 has       3502 integration points.
  Task    10 has       3520 integration points.
  Task    11 has       3434 integration points.
  Task    12 has       3529 integration points.
  Task    13 has       3431 integration points.
  Task    14 has       3518 integration points.
  Task    15 has       3504 integration points.
  Task    16 has       3446 integration points.
  Task    17 has       3522 integration points.
  Task    18 has       3427 integration points.
  Task    19 has       3454 integration points.
  Initializing partition tables, free-atom densities, potentials, etc. across the integration grid (initialize_grid_storage).
  | initialize_grid_storage: Actual outermost partition radius vs. multipole_radius_free
  | (-- VB: in principle, multipole_radius_free should be larger, hence this output)
  | Species        1: Confinement radius =              4.999999999999999 AA, multipole_radius_free =              5.054417573612229 AA.
  | Species        1: outer_partition_radius set to              5.054417573612229 AA .
  | Species        2: Confinement radius =              4.999999999999999 AA, multipole_radius_free =              5.019602836301480 AA.
  | Species        2: outer_partition_radius set to              5.019602836301480 AA .
  | Species        3: Confinement radius =              4.999999999999999 AA, multipole_radius_free =              5.043624274424571 AA.
  | Species        3: outer_partition_radius set to              5.043624274424571 AA .
  | Species        4: Confinement radius =              4.999999999999999 AA, multipole_radius_free =              5.048384829883283 AA.
  | Species        4: outer_partition_radius set to              5.048384829883283 AA .
  | Original list of interatomic distances with          13 x         13 entries is created.
  | Net number of integration points:    69646
  | of which are non-zero points    :    59422
  Renormalizing the initial density to the exact electron count on the 3D integration grid.
  | Initial density: Formal number of electrons (from input files) :      48.0000000000
  | Integrated number of electrons on 3D grid     :      47.9998809279
  | Charge integration error                      :      -0.0001190721
  | Normalization factor for density and gradient :       1.0000024807
  Obtaining max. number of non-zero basis functions in each batch (get_n_compute_maxes).
  | Maximal number of non-zero basis functions:      118 in task     0
  | Maximal number of non-zero basis functions:      118 in task     1
  | Maximal number of non-zero basis functions:      119 in task     2
  | Maximal number of non-zero basis functions:      119 in task     3
  | Maximal number of non-zero basis functions:      118 in task     4
  | Maximal number of non-zero basis functions:      118 in task     5
  | Maximal number of non-zero basis functions:      118 in task     6
  | Maximal number of non-zero basis functions:      118 in task     7
  | Maximal number of non-zero basis functions:      118 in task     8
  | Maximal number of non-zero basis functions:      119 in task     9
  | Maximal number of non-zero basis functions:      118 in task    10
  | Maximal number of non-zero basis functions:      118 in task    11
  | Maximal number of non-zero basis functions:      118 in task    12
  | Maximal number of non-zero basis functions:      118 in task    13
  | Maximal number of non-zero basis functions:      118 in task    14
  | Maximal number of non-zero basis functions:      117 in task    15
  | Maximal number of non-zero basis functions:      119 in task    16
  | Maximal number of non-zero basis functions:      119 in task    17
  | Maximal number of non-zero basis functions:      118 in task    18
  | Maximal number of non-zero basis functions:      118 in task    19
  Selecting the method for density update.
  Loop over occupied states selected for charge density update.
  Allocating        0.050 MB for KS_eigenvector
  Integrating Hamiltonian matrix: batch-based integration.
  Time summed over all CPUs for integration: real work        0.521 s, elapsed        0.564 s
  Integrating overlap matrix.
  Time summed over all CPUs for integration: real work        0.217 s, elapsed        0.230 s
  Deallocating overlap matrix.

  Updating Kohn-Sham eigenvalues and eigenvectors using ELSI and the ELPA eigensolver.
  ELPA settings:
  | ELPA solver          1
  | Time full => band           :     0.001 s
  | Time band => tridiagonal    :     0.001 s
  | Time solve tridiagonal      :     0.001 s
  Overlap matrix is nonsingular
  | Lowest eigenvalue of overlap  :  0.44E-02
  | Highest eigenvalue of overlap :  0.64E+01
  Finished singularity check of overlap matrix
  | Time :     0.003 s
  Finished Cholesky decomposition
  | Time :     0.001 s
  Finished transformation to standard eigenproblem
  | Time :     0.001 s
  Starting ELPA eigensolver
  | Time full => tridiagonal    :     0.002 s
  | Time solve tridiagonal      :     0.000 s
  | Time ev tridiagonal => full :     0.000 s
  Finished solving standard eigenproblem
  | Time :     0.003 s
  Finished back-transformation of eigenvectors
  | Time :     0.000 s

  Obtaining occupation numbers and chemical potential using ELSI.
  | Chemical potential (Fermi level):    -9.88888291eV
  Writing Kohn-Sham eigenvalues.

  State    Occupation    Eigenvalue [Ha]    Eigenvalue [eV]
      1       2.00000         -19.007723         -517.22646
      2       2.00000         -18.977119         -516.39369
      3       2.00000         -14.246077         -387.65547
      4       2.00000         -10.166742         -276.65113
      5       2.00000         -10.142005         -275.97799
      6       2.00000         -10.132161         -275.71012
      7       2.00000          -1.181733          -32.15660
      8       2.00000          -1.101339          -29.96897
      9       2.00000          -0.991356          -26.97618
     10       2.00000          -0.862747          -23.47653
     11       2.00000          -0.749776          -20.40246
     12       2.00000          -0.680353          -18.51334
     13       2.00000          -0.645711          -17.57068
     14       2.00000          -0.608873          -16.56829
     15       2.00000          -0.572994          -15.59196
     16       2.00000          -0.563139          -15.32378
     17       2.00000          -0.554316          -15.08372
     18       2.00000          -0.530235          -14.42842
     19       2.00000          -0.512592          -13.94833
     20       2.00000          -0.504066          -13.71633
     21       2.00000          -0.471637          -12.83389
     22       2.00000          -0.428741          -11.66663
     23       2.00000          -0.410114          -11.15977
     24       2.00000          -0.386165          -10.50808
     25       0.00000          -0.156076           -4.24705
     26       0.00000          -0.071550           -1.94699
     27       0.00000          -0.028024           -0.76258
     28       0.00000          -0.016279           -0.44298
     29       0.00000          -0.004428           -0.12049
     30       0.00000           0.011719            0.31890
     31       0.00000           0.022069            0.60054
     32       0.00000           0.037596            1.02304
     33       0.00000           0.038729            1.05388
     34       0.00000           0.061300            1.66805
     35       0.00000           0.105533            2.87170
     36       0.00000           0.122761            3.34049
     37       0.00000           0.172662            4.69837
     38       0.00000           0.199770            5.43602
     39       0.00000           0.217619            5.92172
     40       0.00000           0.228361            6.21403
     41       0.00000           0.249713            6.79504
     42       0.00000           0.267080            7.26762
     43       0.00000           0.290933            7.91669
     44       0.00000           0.325551            8.85870
     45       0.00000           0.333232            9.06770
     46       0.00000           0.339778            9.24582
     47       0.00000           0.366109            9.96234
     48       0.00000           0.398015           10.83054
     49       0.00000           0.439523           11.96004
     50       0.00000           0.468172           12.73961
     51       0.00000           0.483654           13.16089
     52       0.00000           0.530424           14.43358
     53       0.00000           0.553524           15.06215

  Highest occupied state (VBM) at    -10.50808376 eV
  | Occupation number:      2.00000000

  Lowest unoccupied state (CBM) at    -4.24704947 eV
  | Occupation number:      0.00000000

  Overall HOMO-LUMO gap:      6.26103429 eV.
  Calculating total energy contributions from superposition of free atom densities.

  Total energy components:
  | Sum of eigenvalues            :        -188.85542775 Ha       -5139.01765942 eV
  | XC energy correction          :         -41.79792673 Ha       -1137.37945561 eV
  | XC potential correction       :          53.73272279 Ha        1462.14178018 eV
  | Free-atom electrostatic energy:        -146.84053344 Ha       -3995.73421559 eV
  | Hartree energy correction     :           0.00000000 Ha           0.00000000 eV
  | vdW energy correction         :           0.00000000 Ha           0.00000000 eV
  | Entropy correction            :           0.00000000 Ha           0.00000000 eV
  | ---------------------------
  | Total energy                  :        -323.76116513 Ha       -8809.98955045 eV
  | Total energy, T -> 0          :        -323.76116513 Ha       -8809.98955045 eV  <-- do not rely on this value for anything but (periodic) metals
  | Electronic free energy        :        -323.76116513 Ha       -8809.98955045 eV

  Derived energy quantities:
  | Kinetic energy                :         320.51301166 Ha        8721.60279764 eV
  | Electrostatic energy          :        -602.47625006 Ha      -16394.21289248 eV
  | Energy correction for multipole
  | error in Hartree potential    :           0.00000000 Ha           0.00000000 eV
  | Sum of eigenvalues per atom                           :        -395.30905072 eV
  | Total energy (T->0) per atom                          :        -677.69150388 eV  <-- do not rely on this value for anything but (periodic) metals
  | Electronic free energy per atom                       :        -677.69150388 eV
  Initialize hartree_potential_storage
  Max. number of atoms included in rho_multipole:           13

  End scf initialization - timings             :  max(cpu_time)    wall_clock(cpu1)
  | Time for scf. initialization               :        0.098 s           0.098 s
  | Boundary condition initialization          :        0.000 s           0.000 s
  | Integration                                :        0.041 s           0.041 s
  | Solution of K.-S. eqns.                    :        0.010 s           0.010 s
  | Grid partitioning                          :        0.024 s           0.024 s
  | Preloading free-atom quantities on grid    :        0.003 s           0.003 s
  | Free-atom superposition energy             :        0.005 s           0.005 s
  | Total energy evaluation                    :        0.000 s           0.000 s

  Partial memory accounting:
  | Current value for overall tracked memory usage on task 0  :           0.133 MB
  | Peak value for overall tracked memory usage on task 0     :           0.800 MB after allocating wave
  | Largest tracked array allocation on task 0 so far         :           0.165 MB  when allocating H_times_psi
  Note:  These values currently only include a subset of arrays which are explicitly tracked.
  The "true" memory usage will be greater.
------------------------------------------------------------

------------------------------------------------------------
          Begin self-consistency iteration #    1

  Date     :  20200616, Time     :  064407.501
------------------------------------------------------------
  Evaluating new KS density.
  Integration grid: deviation in total charge (<rho> - N_e) =   0.000000E+00
  Pulay mixing of updated and previous charge densities.

  Evaluating partitioned Hartree potential by multipole expansion.
  | Analytical far-field extrapolation by fixed multipoles:
  | Hartree multipole sum: apparent total charge =  -0.217689E-03
  Summing up the Hartree potential.
  Time summed over all CPUs for potential: real work        0.421 s, elapsed        0.432 s
  | RMS charge density error from multipole expansion :   0.593820E-02

  Integrating Hamiltonian matrix: batch-based integration.
  Time summed over all CPUs for integration: real work        0.509 s, elapsed        0.543 s

  Updating Kohn-Sham eigenvalues and eigenvectors using ELSI and the ELPA eigensolver.
  ELPA settings:
  | ELPA solver          1
  Finished transformation to standard eigenproblem
  | Time :     0.000 s
  Starting ELPA eigensolver
  | Time full => tridiagonal    :     0.002 s
  | Time solve tridiagonal      :     0.000 s
  | Time ev tridiagonal => full :     0.000 s
  Finished solving standard eigenproblem
  | Time :     0.003 s
  Finished back-transformation of eigenvectors
  | Time :     0.000 s

  Obtaining occupation numbers and chemical potential using ELSI.
  | Chemical potential (Fermi level):    -4.67095041eV
  Writing Kohn-Sham eigenvalues.

  State    Occupation    Eigenvalue [Ha]    Eigenvalue [eV]
      1       2.00000         -18.911999         -514.62167
      2       2.00000         -18.832112         -512.44785
      3       2.00000         -14.104011         -383.78967
      4       2.00000         -10.116156         -275.27460
      5       2.00000         -10.067257         -273.94400
      6       2.00000         -10.034501         -273.05266
      7       2.00000          -1.135675          -30.90329
      8       2.00000          -1.037566          -28.23362
      9       2.00000          -0.927262          -25.23209
     10       2.00000          -0.800874          -21.79290
     11       2.00000          -0.698856          -19.01683
     12       2.00000          -0.638914          -17.38572
     13       2.00000          -0.596535          -16.23255
     14       2.00000          -0.549798          -14.96076
     15       2.00000          -0.522941          -14.22996
     16       2.00000          -0.502211          -13.66585
     17       2.00000          -0.493164          -13.41967
     18       2.00000          -0.474674          -12.91653
     19       2.00000          -0.453444          -12.33885
     20       2.00000          -0.447547          -12.17836
     21       2.00000          -0.421662          -11.47400
     22       2.00000          -0.367787          -10.00798
     23       2.00000          -0.340003           -9.25196
     24       2.00000          -0.314204           -8.54992
     25       0.00000          -0.116291           -3.16445
     26       0.00000          -0.051283           -1.39549
     27       0.00000          -0.001665           -0.04531
     28       0.00000           0.010982            0.29883
     29       0.00000           0.031583            0.85943
     30       0.00000           0.047105            1.28180
     31       0.00000           0.055506            1.51040
     32       0.00000           0.068982            1.87709
     33       0.00000           0.085281            2.32063
     34       0.00000           0.092625            2.52046
     35       0.00000           0.138909            3.77991
     36       0.00000           0.151135            4.11260
     37       0.00000           0.203176            5.52871
     38       0.00000           0.226138            6.15354
     39       0.00000           0.247102            6.72399
     40       0.00000           0.257312            7.00182
     41       0.00000           0.280737            7.63925
     42       0.00000           0.301108            8.19357
     43       0.00000           0.324430            8.82818
     44       0.00000           0.363496            9.89123
     45       0.00000           0.367956           10.01259
     46       0.00000           0.380353           10.34993
     47       0.00000           0.400354           10.89418
     48       0.00000           0.438826           11.94106
     49       0.00000           0.469835           12.78485
     50       0.00000           0.501962           13.65909
     51       0.00000           0.517695           14.08721
     52       0.00000           0.563032           15.32089
     53       0.00000           0.590148           16.05875

  Highest occupied state (VBM) at     -8.54992044 eV
  | Occupation number:      2.00000000

  Lowest unoccupied state (CBM) at    -3.16445122 eV
  | Occupation number:      0.00000000

  Overall HOMO-LUMO gap:      5.38546922 eV.

  Total energy components:
  | Sum of eigenvalues            :        -185.57830223 Ha       -5049.84253682 eV
  | XC energy correction          :         -42.12203272 Ha       -1146.19882827 eV
  | XC potential correction       :          54.15414024 Ha        1473.60913242 eV
  | Free-atom electrostatic energy:        -146.84053344 Ha       -3995.73421559 eV
  | Hartree energy correction     :          -3.19571650 Ha         -86.95987040 eV
  | vdW energy correction         :           0.00000000 Ha           0.00000000 eV
  | Entropy correction            :           0.00000000 Ha           0.00000000 eV
  | ---------------------------
  | Total energy                  :        -323.58244464 Ha       -8805.12631866 eV
  | Total energy, T -> 0          :        -323.58244464 Ha       -8805.12631866 eV  <-- do not rely on this value for anything but (periodic) metals
  | Electronic free energy        :        -323.58244464 Ha       -8805.12631866 eV

  Derived energy quantities:
  | Kinetic energy                :         322.28178598 Ha        8769.73359559 eV
  | Electrostatic energy          :        -603.74219790 Ha      -16428.66108598 eV
  | Energy correction for multipole
  | error in Hartree potential    :           0.01151756 Ha           0.31340888 eV
  | Sum of eigenvalues per atom                           :        -388.44942591 eV
  | Total energy (T->0) per atom                          :        -677.31740913 eV  <-- do not rely on this value for anything but (periodic) metals
  | Electronic free energy per atom                       :        -677.31740913 eV

  Self-consistency convergence accuracy:
  | Change of charge density      :  0.5787E+00
  | Change of sum of eigenvalues  :  0.8918E+02 eV
  | Change of total energy        :  0.4863E+01 eV

  End self-consistency iteration #     1       :  max(cpu_time)    wall_clock(cpu1)
  | Time for this iteration                    :        0.079 s           0.079 s
  | Charge density update                      :        0.022 s           0.023 s
  | Density mixing                             :        0.000 s           0.000 s
  | Hartree multipole update                   :        0.001 s           0.001 s
  | Hartree multipole summation                :        0.022 s           0.023 s
  | Integration                                :        0.028 s           0.027 s
  | Solution of K.-S. eqns.                    :        0.004 s           0.004 s
  | Total energy evaluation                    :        0.000 s           0.000 s

  Partial memory accounting:
  | Current value for overall tracked memory usage on task 0  :           0.133 MB
  | Peak value for overall tracked memory usage on task 0     :           0.800 MB after allocating wave
  | Largest tracked array allocation on task 0 so far         :           0.496 MB  when allocating gradient_basis_wave
  Note:  These values currently only include a subset of arrays which are explicitly tracked.
  The "true" memory usage will be greater.
------------------------------------------------------------

------------------------------------------------------------
          Begin self-consistency iteration #    2

  Date     :  20200616, Time     :  064407.584
------------------------------------------------------------
  Evaluating new KS density.
  Integration grid: deviation in total charge (<rho> - N_e) =   2.131628E-14
  Pulay mixing of updated and previous charge densities.

  Evaluating partitioned Hartree potential by multipole expansion.
  | Analytical far-field extrapolation by fixed multipoles:
  | Hartree multipole sum: apparent total charge =  -0.341567E-03
  Summing up the Hartree potential.
  Time summed over all CPUs for potential: real work        0.419 s, elapsed        0.429 s
  | RMS charge density error from multipole expansion :   0.140659E-01

  Integrating Hamiltonian matrix: batch-based integration.
  Time summed over all CPUs for integration: real work        0.510 s, elapsed        0.548 s

  Updating Kohn-Sham eigenvalues and eigenvectors using ELSI and the ELPA eigensolver.
  ELPA settings:
  | ELPA solver          1
  Finished transformation to standard eigenproblem
  | Time :     0.000 s
  Starting ELPA eigensolver
  | Time full => tridiagonal    :     0.002 s
  | Time solve tridiagonal      :     0.000 s
  | Time ev tridiagonal => full :     0.000 s
  Finished solving standard eigenproblem
  | Time :     0.003 s
  Finished back-transformation of eigenvectors
  | Time :     0.000 s

  Obtaining occupation numbers and chemical potential using ELSI.
  | Chemical potential (Fermi level):    -3.44176771eV
  Highest occupied state (VBM) at     -6.64556180 eV
  | Occupation number:      2.00000000

  Lowest unoccupied state (CBM) at    -1.82754116 eV
  | Occupation number:      0.00000000

  Overall HOMO-LUMO gap:      4.81802064 eV.

  Checking to see if s.c.f. parameters should be adjusted.

  Total energy components:
  | Sum of eigenvalues            :        -182.14137099 Ha       -4956.31887928 eV
  | XC energy correction          :         -42.47514162 Ha       -1155.80741022 eV
  | XC potential correction       :          54.61165404 Ha        1486.05871613 eV
  | Free-atom electrostatic energy:        -146.84053344 Ha       -3995.73421559 eV
  | Hartree energy correction     :          -6.66005909 Ha        -181.22942856 eV
  | vdW energy correction         :           0.00000000 Ha           0.00000000 eV
  | Entropy correction            :           0.00000000 Ha           0.00000000 eV
  | ---------------------------
  | Total energy                  :        -323.50545109 Ha       -8803.03121752 eV
  | Total energy, T -> 0          :        -323.50545109 Ha       -8803.03121752 eV  <-- do not rely on this value for anything but (periodic) metals
  | Electronic free energy        :        -323.50545109 Ha       -8803.03121752 eV

  Derived energy quantities:
  | Kinetic energy                :         323.58265479 Ha        8805.13203712 eV
  | Electrostatic energy          :        -604.61296427 Ha      -16452.35584443 eV
  | Energy correction for multipole
  | error in Hartree potential    :           0.02515361 Ha           0.68446455 eV
  | Sum of eigenvalues per atom                           :        -381.25529841 eV
  | Total energy (T->0) per atom                          :        -677.15624750 eV  <-- do not rely on this value for anything but (periodic) metals
  | Electronic free energy per atom                       :        -677.15624750 eV

  Self-consistency convergence accuracy:
  | Change of charge density      :  0.3620E+00
  | Change of sum of eigenvalues  :  0.9352E+02 eV
  | Change of total energy        :  0.2095E+01 eV

  End self-consistency iteration #     2       :  max(cpu_time)    wall_clock(cpu1)
  | Time for this iteration                    :        0.079 s           0.079 s
  | Charge density update                      :        0.023 s           0.022 s
  | Density mixing                             :        0.001 s           0.001 s
  | Hartree multipole update                   :        0.001 s           0.001 s
  | Hartree multipole summation                :        0.022 s           0.022 s
  | Integration                                :        0.028 s           0.028 s
  | Solution of K.-S. eqns.                    :        0.004 s           0.004 s
  | Total energy evaluation                    :        0.000 s           0.001 s

  Partial memory accounting:
  | Current value for overall tracked memory usage on task 0  :           0.134 MB
  | Peak value for overall tracked memory usage on task 0     :           0.800 MB after allocating wave
  | Largest tracked array allocation on task 0 so far         :           0.496 MB  when allocating gradient_basis_wave
  Note:  These values currently only include a subset of arrays which are explicitly tracked.
  The "true" memory usage will be greater.
------------------------------------------------------------

------------------------------------------------------------
          Begin self-consistency iteration #    3

  Date     :  20200616, Time     :  064407.671
------------------------------------------------------------
  Evaluating new KS density.
  Integration grid: deviation in total charge (<rho> - N_e) =   1.421085E-14
  Pulay mixing of updated and previous charge densities.

  Evaluating partitioned Hartree potential by multipole expansion.
  | Analytical far-field extrapolation by fixed multipoles:
  | Hartree multipole sum: apparent total charge =  -0.427383E-03
  Summing up the Hartree potential.
  Time summed over all CPUs for potential: real work        0.420 s, elapsed        0.430 s
  | RMS charge density error from multipole expansion :   0.222402E-01

  Integrating Hamiltonian matrix: batch-based integration.
  Time summed over all CPUs for integration: real work        0.510 s, elapsed        0.544 s

  Updating Kohn-Sham eigenvalues and eigenvectors using ELSI and the ELPA eigensolver.
  ELPA settings:
  | ELPA solver          1
  Finished transformation to standard eigenproblem
  | Time :     0.000 s
  Starting ELPA eigensolver
  | Time full => tridiagonal    :     0.002 s
  | Time solve tridiagonal      :     0.000 s
  | Time ev tridiagonal => full :     0.000 s
  Finished solving standard eigenproblem
  | Time :     0.003 s
  Finished back-transformation of eigenvectors
  | Time :     0.000 s

  Obtaining occupation numbers and chemical potential using ELSI.
  | Chemical potential (Fermi level):    -2.79168273eV
  Highest occupied state (VBM) at     -6.00470456 eV
  | Occupation number:      2.00000000

  Lowest unoccupied state (CBM) at    -1.11999069 eV
  | Occupation number:      0.00000000

  Overall HOMO-LUMO gap:      4.88471387 eV.

  Total energy components:
  | Sum of eigenvalues            :        -180.82915005 Ha       -4920.61153087 eV
  | XC energy correction          :         -42.63028071 Ha       -1160.02895979 eV
  | XC potential correction       :          54.80934713 Ha        1491.43821893 eV
  | Free-atom electrostatic energy:        -146.84053344 Ha       -3995.73421559 eV
  | Hartree energy correction     :          -8.00234053 Ha        -217.75476511 eV
  | vdW energy correction         :           0.00000000 Ha           0.00000000 eV
  | Entropy correction            :           0.00000000 Ha           0.00000000 eV
  | ---------------------------
  | Total energy                  :        -323.49295761 Ha       -8802.69125244 eV
  | Total energy, T -> 0          :        -323.49295761 Ha       -8802.69125244 eV  <-- do not rely on this value for anything but (periodic) metals
  | Electronic free energy        :        -323.49295761 Ha       -8802.69125244 eV

  Derived energy quantities:
  | Kinetic energy                :         323.21096413 Ha        8795.01781951 eV
  | Electrostatic energy          :        -604.07364102 Ha      -16437.68011216 eV
  | Energy correction for multipole
  | error in Hartree potential    :           0.03543589 Ha           0.96425970 eV
  | Sum of eigenvalues per atom                           :        -378.50857930 eV
  | Total energy (T->0) per atom                          :        -677.13009634 eV  <-- do not rely on this value for anything but (periodic) metals
  | Electronic free energy per atom                       :        -677.13009634 eV

  Self-consistency convergence accuracy:
  | Change of charge density      :  0.2036E+00
  | Change of sum of eigenvalues  :  0.3571E+02 eV
  | Change of total energy        :  0.3400E+00 eV

  End self-consistency iteration #     3       :  max(cpu_time)    wall_clock(cpu1)
  | Time for this iteration                    :        0.087 s           0.081 s
  | Charge density update                      :        0.031 s           0.025 s
  | Density mixing                             :        0.001 s           0.001 s
  | Hartree multipole update                   :        0.001 s           0.001 s
  | Hartree multipole summation                :        0.022 s           0.022 s
  | Integration                                :        0.028 s           0.027 s
  | Solution of K.-S. eqns.                    :        0.004 s           0.004 s
  | Total energy evaluation                    :        0.000 s           0.000 s

  Partial memory accounting:
  | Current value for overall tracked memory usage on task 0  :           0.134 MB
  | Peak value for overall tracked memory usage on task 0     :           0.800 MB after allocating wave
  | Largest tracked array allocation on task 0 so far         :           0.496 MB  when allocating gradient_basis_wave
  Note:  These values currently only include a subset of arrays which are explicitly tracked.
  The "true" memory usage will be greater.
------------------------------------------------------------

------------------------------------------------------------
          Begin self-consistency iteration #    4

  Date     :  20200616, Time     :  064407.758
------------------------------------------------------------
  Evaluating new KS density.
  Integration grid: deviation in total charge (<rho> - N_e) =   7.105427E-15
  Pulay mixing of updated and previous charge densities.

  Evaluating partitioned Hartree potential by multipole expansion.
  | Analytical far-field extrapolation by fixed multipoles:
  | Hartree multipole sum: apparent total charge =  -0.454998E-03
  Summing up the Hartree potential.
  Time summed over all CPUs for potential: real work        0.411 s, elapsed        0.421 s
  | RMS charge density error from multipole expansion :   0.257777E-01

  Integrating Hamiltonian matrix: batch-based integration.
  Time summed over all CPUs for integration: real work        0.509 s, elapsed        0.548 s

  Updating Kohn-Sham eigenvalues and eigenvectors using ELSI and the ELPA eigensolver.
  ELPA settings:
  | ELPA solver          1
  Finished transformation to standard eigenproblem
  | Time :     0.000 s
  Starting ELPA eigensolver
  | Time full => tridiagonal    :     0.002 s
  | Time solve tridiagonal      :     0.000 s
  | Time ev tridiagonal => full :     0.000 s
  Finished solving standard eigenproblem
  | Time :     0.003 s
  Finished back-transformation of eigenvectors
  | Time :     0.000 s

  Obtaining occupation numbers and chemical potential using ELSI.
  | Chemical potential (Fermi level):    -2.72401162eV
  Highest occupied state (VBM) at     -5.80065220 eV
  | Occupation number:      2.00000000

  Lowest unoccupied state (CBM) at    -1.04410934 eV
  | Occupation number:      0.00000000

  Overall HOMO-LUMO gap:      4.75654286 eV.

  Total energy components:
  | Sum of eigenvalues            :        -180.73761565 Ha       -4918.12075313 eV
  | XC energy correction          :         -42.66687570 Ha       -1161.02476016 eV
  | XC potential correction       :          54.85514367 Ha        1492.68440633 eV
  | Free-atom electrostatic energy:        -146.84053344 Ha       -3995.73421559 eV
  | Hartree energy correction     :          -8.10212714 Ha        -220.47009687 eV
  | vdW energy correction         :           0.00000000 Ha           0.00000000 eV
  | Entropy correction            :           0.00000000 Ha           0.00000000 eV
  | ---------------------------
  | Total energy                  :        -323.49200826 Ha       -8802.66541942 eV
  | Total energy, T -> 0          :        -323.49200826 Ha       -8802.66541942 eV  <-- do not rely on this value for anything but (periodic) metals
  | Electronic free energy        :        -323.49200826 Ha       -8802.66541942 eV

  Derived energy quantities:
  | Kinetic energy                :         322.81152662 Ha        8784.14857187 eV
  | Electrostatic energy          :        -603.63665918 Ha      -16425.78923113 eV
  | Energy correction for multipole
  | error in Hartree potential    :           0.03934627 Ha           1.07066649 eV
  | Sum of eigenvalues per atom                           :        -378.31698101 eV
  | Total energy (T->0) per atom                          :        -677.12810919 eV  <-- do not rely on this value for anything but (periodic) metals
  | Electronic free energy per atom                       :        -677.12810919 eV

  Self-consistency convergence accuracy:
  | Change of charge density      :  0.6662E-01
  | Change of sum of eigenvalues  :  0.2491E+01 eV
  | Change of total energy        :  0.2583E-01 eV

  End self-consistency iteration #     4       :  max(cpu_time)    wall_clock(cpu1)
  | Time for this iteration                    :        0.083 s           0.079 s
  | Charge density update                      :        0.027 s           0.024 s
  | Density mixing                             :        0.001 s           0.000 s
  | Hartree multipole update                   :        0.001 s           0.002 s
  | Hartree multipole summation                :        0.021 s           0.021 s
  | Integration                                :        0.028 s           0.028 s
  | Solution of K.-S. eqns.                    :        0.004 s           0.004 s
  | Total energy evaluation                    :        0.000 s           0.000 s

  Partial memory accounting:
  | Current value for overall tracked memory usage on task 0  :           0.134 MB
  | Peak value for overall tracked memory usage on task 0     :           0.800 MB after allocating wave
  | Largest tracked array allocation on task 0 so far         :           0.496 MB  when allocating gradient_basis_wave
  Note:  These values currently only include a subset of arrays which are explicitly tracked.
  The "true" memory usage will be greater.
------------------------------------------------------------

------------------------------------------------------------
          Begin self-consistency iteration #    5

  Date     :  20200616, Time     :  064407.844
------------------------------------------------------------
  Evaluating new KS density.
  Integration grid: deviation in total charge (<rho> - N_e) =   2.842171E-14
  Pulay mixing of updated and previous charge densities.

  Evaluating partitioned Hartree potential by multipole expansion.
  | Analytical far-field extrapolation by fixed multipoles:
  | Hartree multipole sum: apparent total charge =  -0.450102E-03
  Summing up the Hartree potential.
  Time summed over all CPUs for potential: real work        0.411 s, elapsed        0.421 s
  | RMS charge density error from multipole expansion :   0.255061E-01

  Integrating Hamiltonian matrix: batch-based integration.
  Time summed over all CPUs for integration: real work        0.510 s, elapsed        0.547 s

  Updating Kohn-Sham eigenvalues and eigenvectors using ELSI and the ELPA eigensolver.
  ELPA settings:
  | ELPA solver          1
  Finished transformation to standard eigenproblem
  | Time :     0.000 s
  Starting ELPA eigensolver
  | Time full => tridiagonal    :     0.002 s
  | Time solve tridiagonal      :     0.000 s
  | Time ev tridiagonal => full :     0.000 s
  Finished solving standard eigenproblem
  | Time :     0.003 s
  Finished back-transformation of eigenvectors
  | Time :     0.000 s

  Obtaining occupation numbers and chemical potential using ELSI.
  | Chemical potential (Fermi level):    -2.76602658eV
  Highest occupied state (VBM) at     -5.90243137 eV
  | Occupation number:      2.00000000

  Lowest unoccupied state (CBM) at    -1.11736972 eV
  | Occupation number:      0.00000000

  Overall HOMO-LUMO gap:      4.78506165 eV.

  Total energy components:
  | Sum of eigenvalues            :        -180.88598378 Ha       -4922.15805533 eV
  | XC energy correction          :         -42.64725893 Ha       -1160.49096049 eV
  | XC potential correction       :          54.82972120 Ha        1491.99262561 eV
  | Free-atom electrostatic energy:        -146.84053344 Ha       -3995.73421559 eV
  | Hartree energy correction     :          -7.94762915 Ha        -216.26599256 eV
  | vdW energy correction         :           0.00000000 Ha           0.00000000 eV
  | Entropy correction            :           0.00000000 Ha           0.00000000 eV
  | ---------------------------
  | Total energy                  :        -323.49168409 Ha       -8802.65659835 eV
  | Total energy, T -> 0          :        -323.49168409 Ha       -8802.65659835 eV  <-- do not rely on this value for anything but (periodic) metals
  | Electronic free energy        :        -323.49168409 Ha       -8802.65659835 eV

  Derived energy quantities:
  | Kinetic energy                :         322.73126223 Ha        8781.96446671 eV
  | Electrostatic energy          :        -603.57568740 Ha      -16424.13010458 eV
  | Energy correction for multipole
  | error in Hartree potential    :           0.03876033 Ha           1.05472215 eV
  | Sum of eigenvalues per atom                           :        -378.62754272 eV
  | Total energy (T->0) per atom                          :        -677.12743064 eV  <-- do not rely on this value for anything but (periodic) metals
  | Electronic free energy per atom                       :        -677.12743064 eV

  Self-consistency convergence accuracy:
  | Change of charge density      :  0.2277E-01
  | Change of sum of eigenvalues  : -0.4037E+01 eV
  | Change of total energy        :  0.8821E-02 eV

  End self-consistency iteration #     5       :  max(cpu_time)    wall_clock(cpu1)
  | Time for this iteration                    :        0.083 s           0.079 s
  | Charge density update                      :        0.027 s           0.023 s
  | Density mixing                             :        0.001 s           0.001 s
  | Hartree multipole update                   :        0.001 s           0.002 s
  | Hartree multipole summation                :        0.021 s           0.021 s
  | Integration                                :        0.028 s           0.028 s
  | Solution of K.-S. eqns.                    :        0.004 s           0.004 s
  | Total energy evaluation                    :        0.000 s           0.000 s

  Partial memory accounting:
  | Current value for overall tracked memory usage on task 0  :           0.134 MB
  | Peak value for overall tracked memory usage on task 0     :           0.800 MB after allocating wave
  | Largest tracked array allocation on task 0 so far         :           0.496 MB  when allocating gradient_basis_wave
  Note:  These values currently only include a subset of arrays which are explicitly tracked.
  The "true" memory usage will be greater.
------------------------------------------------------------

------------------------------------------------------------
          Begin self-consistency iteration #    6

  Date     :  20200616, Time     :  064407.929
------------------------------------------------------------
  Evaluating new KS density.
  Integration grid: deviation in total charge (<rho> - N_e) =   2.131628E-14
  Pulay mixing of updated and previous charge densities.

  Evaluating partitioned Hartree potential by multipole expansion.
  | Analytical far-field extrapolation by fixed multipoles:
[...]
  |   Hirshfeld dipole moment :      0.06071380
  |   Hirshfeld second moments:     -0.03692458      -0.01263799      -0.00354402
  |                                 -0.01263799      -0.01682682       0.02510720
  |                                 -0.00354402       0.02510720       0.00610595
  ----------------------------------------------------------------------
  | Atom    12: O
  |   Hirshfeld charge        :     -0.13305188
  |   Free atom volume        :     23.61338643
  |   Hirshfeld volume        :     20.92683733
  |   Hirshfeld dipole vector :      0.02051496       0.03401737      -0.01417347
  |   Hirshfeld dipole moment :      0.04217739
  |   Hirshfeld second moments:      0.06930395      -0.02809221       0.01157513
  |                                 -0.02809221       0.05203467       0.00499287
  |                                  0.01157513       0.00499287       0.05809060
  ----------------------------------------------------------------------
  | Atom    13: H
  |   Hirshfeld charge        :      0.15931142
  |   Free atom volume        :      9.95071624
  |   Hirshfeld volume        :      6.74596800
  |   Hirshfeld dipole vector :     -0.06216082       0.07121884      -0.03354067
  |   Hirshfeld dipole moment :      0.10030487
  |   Hirshfeld second moments:      0.11248110      -0.01056892       0.00633587
  |                                 -0.01056892       0.08167670       0.01329043
  |                                  0.00633587       0.01329043       0.10267315
  ----------------------------------------------------------------------


  Total energy components:
  | Sum of eigenvalues            :        -180.92533453 Ha       -4923.22884369 eV
  | XC energy correction          :         -42.63889267 Ha       -1160.26330299 eV
  | XC potential correction       :          54.81892296 Ha        1491.69879045 eV
  | Free-atom electrostatic energy:        -146.84053344 Ha       -3995.73421559 eV
  | Hartree energy correction     :          -7.90575533 Ha        -215.12654797 eV
  | vdW energy correction         :          -0.00333505 Ha          -0.09075126 eV
  | Entropy correction            :           0.00000000 Ha           0.00000000 eV
  | ---------------------------
  | Total energy                  :        -323.49492805 Ha       -8802.74487105 eV
  | Total energy, T -> 0          :        -323.49492805 Ha       -8802.74487105 eV  <-- do not rely on this value for anything but (periodic) metals
  | Electronic free energy        :        -323.49492805 Ha       -8802.74487105 eV

  Derived energy quantities:
  | Kinetic energy                :         322.60288536 Ha        8778.47115444 eV
  | Electrostatic energy          :        -603.45558570 Ha      -16420.86197124 eV
  | Energy correction for multipole
  | error in Hartree potential    :           0.03890518 Ha           1.05866376 eV
  | Sum of eigenvalues per atom                           :        -378.70991105 eV
  | Total energy (T->0) per atom                          :        -677.13422085 eV  <-- do not rely on this value for anything but (periodic) metals
  | Electronic free energy per atom                       :        -677.13422085 eV

  atomic forces [eV/Ang]:
  -----------------------
  atom #    1
   Hellmann-Feynman              :  0.133946E+01  0.106924E+00  0.170060E+01
   Ionic forces                  :  0.000000E+00  0.000000E+00  0.000000E+00
   Multipole                     :  0.776921E-01  0.100839E+00 -0.274289E+00
   Pulay + GGA                   : -0.101059E+01  0.546902E-01 -0.162246E+01
   Van der Waals                 :  0.229035E-02  0.921366E-03 -0.149068E-02
   ----------------------------------------------------------------
   Total forces(   1)            :  0.408843E+00  0.263375E+00 -0.197638E+00
  atom #    2
   Hellmann-Feynman              :  0.184699E+00  0.411534E-01  0.837128E-01
   Ionic forces                  :  0.000000E+00  0.000000E+00  0.000000E+00
   Multipole                     :  0.172393E+00 -0.133962E-01  0.910571E-02
   Pulay + GGA                   : -0.140420E+00 -0.313275E-01  0.478913E-01
   Van der Waals                 :  0.750124E-03 -0.450748E-02 -0.540476E-03
   ----------------------------------------------------------------
   Total forces(   2)            :  0.217422E+00 -0.807769E-02  0.140169E+00
  atom #    3
   Hellmann-Feynman              : -0.786312E+01  0.845218E+01 -0.429509E+00
   Ionic forces                  :  0.000000E+00  0.000000E+00  0.000000E+00
   Multipole                     : -0.174428E+00  0.118922E+00 -0.735566E+00
   Pulay + GGA                   :  0.778215E+01 -0.851697E+01  0.168373E+01
   Van der Waals                 :  0.838516E-02 -0.240606E-02 -0.127992E-01
   ----------------------------------------------------------------
   Total forces(   3)            : -0.247010E+00  0.517251E-01  0.505855E+00
  atom #    4
   Hellmann-Feynman              : -0.180393E-01 -0.242483E+00 -0.152725E+00
   Ionic forces                  :  0.000000E+00  0.000000E+00  0.000000E+00
   Multipole                     :  0.320758E-01 -0.169536E-01 -0.110805E+00
   Pulay + GGA                   : -0.202528E+00  0.482837E-01  0.138651E+00
   Van der Waals                 : -0.436373E-02  0.300031E-03  0.679258E-02
   ----------------------------------------------------------------
   Total forces(   4)            : -0.192855E+00 -0.210853E+00 -0.118086E+00
  atom #    5
   Hellmann-Feynman              :  0.172834E+00 -0.291045E+00 -0.404354E+00
   Ionic forces                  :  0.000000E+00  0.000000E+00  0.000000E+00
   Multipole                     : -0.458749E-01 -0.765797E-01 -0.920184E-01
   Pulay + GGA                   :  0.603036E-01  0.212452E+00  0.126272E-01
   Van der Waals                 :  0.117908E-02  0.369321E-02 -0.762414E-03
   ----------------------------------------------------------------
   Total forces(   5)            :  0.188441E+00 -0.151479E+00 -0.484508E+00
  atom #    6
   Hellmann-Feynman              :  0.656598E+00 -0.634382E+00  0.957089E-02
   Ionic forces                  :  0.000000E+00  0.000000E+00  0.000000E+00
   Multipole                     : -0.313897E+00  0.572978E+00  0.228386E+00
   Pulay + GGA                   : -0.162040E+00 -0.279338E+00 -0.155261E+00
   Van der Waals                 :  0.542366E-02  0.117297E-01  0.115894E-02
   ----------------------------------------------------------------
   Total forces(   6)            :  0.186085E+00 -0.329012E+00  0.838548E-01
  atom #    7
   Hellmann-Feynman              :  0.444569E-01 -0.576883E-01  0.223711E+00
   Ionic forces                  :  0.000000E+00  0.000000E+00  0.000000E+00
   Multipole                     :  0.367321E-01  0.859242E-01  0.112890E+00
   Pulay + GGA                   : -0.572844E-01 -0.238166E-01 -0.864004E-01
   Van der Waals                 : -0.305005E-02  0.128990E-02  0.268887E-03
   ----------------------------------------------------------------
   Total forces(   7)            :  0.208546E-01  0.570923E-02  0.250469E+00
  atom #    8
   Hellmann-Feynman              :  0.507446E-01  0.121896E-01 -0.181045E+00
   Ionic forces                  :  0.000000E+00  0.000000E+00  0.000000E+00
   Multipole                     : -0.705613E-02  0.135809E+00 -0.257000E-01
   Pulay + GGA                   : -0.360004E-01 -0.106495E+00  0.434220E-01
   Van der Waals                 : -0.320996E-02 -0.137437E-02  0.154896E-02
   ----------------------------------------------------------------
   Total forces(   8)            :  0.447810E-02  0.401292E-01 -0.161774E+00
  atom #    9
   Hellmann-Feynman              : -0.314834E+00  0.200243E-01  0.316138E-02
   Ionic forces                  :  0.000000E+00  0.000000E+00  0.000000E+00
   Multipole                     : -0.110811E+00  0.418041E-01  0.532057E-01
   Pulay + GGA                   :  0.117248E+00  0.103093E+00  0.388893E-02
   Van der Waals                 : -0.676721E-03  0.986928E-02  0.372290E-02
   ----------------------------------------------------------------
   Total forces(   9)            : -0.309073E+00  0.174790E+00  0.639789E-01
  atom #   10
   Hellmann-Feynman              :  0.535790E+01  0.219439E+01 -0.966875E-01
   Ionic forces                  :  0.000000E+00  0.000000E+00  0.000000E+00
   Multipole                     :  0.941124E-01  0.694473E-01  0.460980E-01
   Pulay + GGA                   : -0.246034E+01 -0.215666E+01  0.701664E+00
   Van der Waals                 :  0.217532E-02 -0.111219E-01 -0.115432E-02
   ----------------------------------------------------------------
   Total forces(  10)            :  0.299385E+01  0.960504E-01  0.649920E+00
  atom #   11
   Hellmann-Feynman              :  0.981502E+01 -0.775544E+01  0.749700E+01
   Ionic forces                  :  0.000000E+00  0.000000E+00  0.000000E+00
   Multipole                     :  0.523891E+00 -0.739588E+00  0.734846E+00
   Pulay + GGA                   : -0.918108E+01  0.838318E+01 -0.800480E+01
   Van der Waals                 : -0.259230E-04  0.565907E-02 -0.328979E-02
   ----------------------------------------------------------------
   Total forces(  11)            :  0.115780E+01 -0.106195E+00  0.223761E+00
  atom #   12
   Hellmann-Feynman              : -0.888563E+01 -0.111210E+02  0.326474E+01
   Ionic forces                  :  0.000000E+00  0.000000E+00  0.000000E+00
   Multipole                     : -0.127075E+01 -0.104649E+01  0.185187E+00
   Pulay + GGA                   :  0.721625E+01  0.123856E+02 -0.405705E+01
   Van der Waals                 : -0.428358E-02 -0.150883E-01  0.779640E-02
   ----------------------------------------------------------------
   Total forces(  12)            : -0.294441E+01  0.203027E+00 -0.599323E+00
  atom #   13
   Hellmann-Feynman              : -0.161988E+01  0.215108E+00 -0.477685E+00
   Ionic forces                  :  0.000000E+00  0.000000E+00  0.000000E+00
   Multipole                     : -0.600024E-02  0.106400E+00 -0.593048E-01
   Pulay + GGA                   :  0.145269E+00 -0.351945E+00  0.176502E+00
   Van der Waals                 : -0.459374E-02  0.103552E-02 -0.125184E-02
   ----------------------------------------------------------------
   Total forces(  13)            : -0.148520E+01 -0.294022E-01 -0.361740E+00

  Timings for VdW correction (Tkatchenko-Scheffler 2009 or later):
  | CPU time:        0.009 s, Wall clock time:        0.006 s.
  Removing unitary transformations (pure translations, rotations) from forces on atoms.
  Atomic forces before filtering:
  | Net force on center of mass :  -0.774015E-03 -0.213288E-03 -0.506094E-02 eV/A
  | Net torque on center of mass:   0.175474E-02 -0.185056E-02 -0.104633E-01 eV
  Atomic forces after filtering:
  | Net force on center of mass :  -0.535218E-15 -0.892031E-16  0.446015E-16 eV/A
  | Net torque on center of mass:  -0.811323E-17  0.188817E-15 -0.377634E-15 eV

  Energy and forces in a compact form:
  | Total energy uncorrected      :         -0.880274487105220E+04 eV
  | Total energy corrected        :         -0.880274487105220E+04 eV  <-- do not rely on this value for anything but (periodic) metals
  | Electronic free energy        :         -0.880274487105220E+04 eV
  Total atomic forces (unitary forces cleaned) [eV/Ang]:
  |   1          0.408879012836146E+00          0.263556349512277E+00         -0.197289518194587E+00
  |   2          0.217457717389399E+00         -0.749126318023343E-02          0.140427883785810E+00
  |   3         -0.247091322100626E+00          0.516485963784789E-01          0.506243480604818E+00
  |   4         -0.193025960619546E+00         -0.210666889988881E+00         -0.117770426558448E+00
  |   5          0.188671761980748E+00         -0.151741226478073E+00         -0.484029694372763E+00
  |   6          0.185713777509623E+00         -0.328972198418252E+00          0.841722138140858E-01
  |   7          0.205004656398345E-01          0.601239118752320E-02          0.250730770591264E+00
  |   8          0.372843538405205E-02          0.401768237222268E-01         -0.161516798641552E+00
  |   9         -0.309386604747569E+00          0.174454017044598E+00          0.643891893766960E-01
  |  10          0.299442601803143E+01          0.961288310830527E-01          0.650374649925303E+00
  |  11          0.115869059245404E+01         -0.105804238503884E+00          0.224194592858782E+00
  |  12         -0.294371956758993E+01          0.202639466269106E+00         -0.598745781135511E+00
  |  13         -0.148484432616761E+01         -0.299406586279387E-01         -0.361180562053899E+00

  ------------------------------------ 
  Start decomposition of the XC Energy 
  ------------------------------------ 
  X and C from original XC functional choice 
  Hartree-Fock Energy :          0.000000000 Ha              0.000000000 eV
  X Energy            :        -41.037748396 Ha          -1116.693950611 eV
  C Energy            :         -1.601144270 Ha            -43.569352381 eV
  Total XC Energy     :        -42.638892666 Ha          -1160.263302992 eV
  ------------------------------------ 
  LDA X and C from self-consistent density 
  X Energy LDA        :        -37.256767516 Ha          -1013.808226110 eV
  C Energy LDA        :         -3.138687050 Ha            -85.408020130 eV
  ------------------------------------ 
  End decomposition of the XC Energy 
  ------------------------------------ 

------------------------------------------------------------

------------------------------------------------------------------------------
  Final output of selected total energy values:

  The following output summarizes some interesting total energy values
  at the end of a run (AFTER all relaxation, molecular dynamics, etc.).

  | Total energy of the DFT / Hartree-Fock s.c.f. calculation      :          -8802.744871052 eV
  | Final zero-broadening corrected energy (caution - metals only) :          -8802.744871052 eV
  | For reference only, the value of 1 Hartree used in FHI-aims is :             27.211384500 eV

  Before relying on these values, please be sure to understand exactly which
  total energy value is referred to by a given number. Different objects may
  all carry the same name 'total energy'. Definitions:

  Total energy of the DFT / Hartree-Fock s.c.f. calculation:
  | Note that this energy does not include ANY quantities calculated after the
  | s.c.f. cycle, in particular not ANY RPA, MP2, etc. many-body perturbation terms.

  Final zero-broadening corrected energy:
  | For metallic systems only, a broadening of the occupation numbers at the Fermi
  | level can be extrapolated back to zero broadening by an electron-gas inspired
  | formula. For all systems that are not real metals, this value can be
  | meaningless and should be avoided.

------------------------------------------------------------------------------
  Methods described in the following list of references were used in this FHI-aims run.
  If you publish the results, please make sure to cite these reference if they apply.
  FHI-aims is an academic code, and for our developers (often, Ph.D. students
  and postdocs), scientific credit in the community is essential.
  Thank you for helping us!

  For any use of FHI-aims, please cite:

    Volker Blum, Ralf Gehrke, Felix Hanke, Paula Havu, Ville Havu,
    Xinguo Ren, Karsten Reuter, and Matthias Scheffler
    'Ab initio molecular simulations with numeric atom-centered orbitals'
    Computer Physics Communications 180, 2175-2196 (2009)
    http://dx.doi.org/10.1016/j.cpc.2009.06.022


  The scalable eigensolver library ELPA was used in your run.
  ELPA is essential especially for large systems on hundreds or thousands of CPUs.
  For ELPA, please cite:

    Andreas Marek, Volker Blum, Rainer Johanni, Ville Havu, Bruno Lang,
    Thomas Auckenthaler, Alexander Heinecke, Hans-Joachim Bungartz, and Hermann Lederer,
    'The ELPA Library - Scalable Parallel Eigenvalue Solutions
    for Electronic Structure Theory and Computational Science'
    The Journal of Physics: Condensed Matter 26, 213201 (2014).
    http://dx.doi.org/10.1088/0953-8984/26/21/213201


  The ELSI infrastructure was used in your run to solve the Kohn-Sham electronic structure.
  Please check out http://elsi-interchange.org to learn more.
  If scalability is important for your project, please acknowledge ELSI by citing:

    V. W-z. Yu, F. Corsetti, A. Garcia, W. P. Huhn, M. Jacquelin, W. Jia,
    B. Lange, L. Lin, J. Lu, W. Mi, A. Seifitokaldani, A. Vazquez-Mayagoitia,
    C. Yang, H. Yang, and V. Blum
    'ELSI: A unified software interface for Kohn-Sham electronic structure solvers'
    Computer Physics Communications 222, 267-285 (2018).
    http://dx.doi.org/10.1016/j.cpc.2017.09.007


  For the real-space grid partitioning and parallelization used in this calculation, please cite:

    Ville Havu, Volker Blum, Paula Havu, and Matthias Scheffler,
    'Efficient O(N) integration for all-electron electronic structure calculation'
    'using numerically tabulated basis functions'
    Journal of Computational Physics 228, 8367-8379 (2009).
    http://dx.doi.org/10.1016/j.jcp.2009.08.008

  Of course, there are many other important community references, e.g., those cited in the
  above references. Our list is limited to references that describe implementations in the
  FHI-aims code. The reason is purely practical (length of this list) - please credit others as well.

------------------------------------------------------------
          Leaving FHI-aims.
          Date     :  20200616, Time     :  064409.029

          Computational steps:
          | Number of self-consistency cycles          :           16
          | Number of SCF (re)initializations          :            1

          Detailed time accounting                     :  max(cpu_time)    wall_clock(cpu1)
          | Total time                                 :        1.771 s           1.830 s
          | Preparation time                           :        0.163 s           0.162 s
          | Boundary condition initalization           :        0.000 s           0.000 s
          | Grid partitioning                          :        0.024 s           0.024 s
          | Preloading free-atom quantities on grid    :        0.003 s           0.003 s
          | Free-atom superposition energy             :        0.005 s           0.005 s
          | Total time for integrations                :        0.484 s           0.484 s
          | Total time for solution of K.-S. equations :        0.075 s           0.074 s
          | Total time for density & force components  :        0.482 s           0.399 s
          | Total time for mixing                      :        0.016 s           0.016 s
          | Total time for Hartree multipole update    :        0.020 s           0.018 s
          | Total time for Hartree multipole sum       :        0.428 s           0.429 s
          | Total time for total energy evaluation     :        0.003 s           0.005 s
          | Total time for vdW correction              :        0.009 s           0.006 s

          Partial memory accounting:
          | Residual value for overall tracked memory usage across tasks :           0.000 MB (should be 0.000 MB)
          | Peak values for overall tracked memory usage (after allocating hessian_basis_wave):
          |   Minimum:        1.923 MB (on task 16)
          |   Maximum:        1.967 MB (on task  3)
          |   Average:        1.948 MB
          | Largest tracked array allocation (hessian_basis_wave):
          |   Minimum:        0.983 MB (on task 16)
          |   Maximum:        1.000 MB (on task  3)
          |   Average:        0.993 MB
          Note:  These values currently only include a subset of arrays which are explicitly tracked.
          The "true" memory usage will be greater.

          Have a nice day.
------------------------------------------------------------
