  MPI-parallelism will be employed.
------------------------------------------------------------
          Invoking FHI-aims ...
          Version 171221_1
          Compiled on 2019/09/09 at 14:39:39 on host puhti-login2.bullx.

          When using FHI-aims, please cite the following reference:

          Volker Blum, Ralf Gehrke, Felix Hanke, Paula Havu,
          Ville Havu, Xinguo Ren, Karsten Reuter, and Matthias Scheffler,
          'Ab Initio Molecular Simulations with Numeric Atom-Centered Orbitals',
          Computer Physics Communications 180, 2175-2196 (2009)

          For any questions about FHI-aims, please visit the aimsclub website
          with its forums and wiki. Contributions to both the forums and the
          wiki are warmly encouraged - they are for you, and everyone is welcome there.

------------------------------------------------------------



  Date     :  20200710, Time     :  151028.767
  Time zero on CPU 1             :   0.115240000000000E-01  s.
  Internal wall clock time zero  :           363625828.767  s.

  FHI-aims created a unique identifier for this run for later identification
  aims_uuid : 73CBE7D9-D053-4559-A68A-B175DE31262D

  Using        1 parallel tasks.
  Task        0 on host r18c45.bullx reporting.

  Performing system and environment tests:
  | Environment variable OMP_NUM_THREADS correctly set to 1.
  | Stacksize not measured: no C compiler
  | Checking for scalapack...
  | Testing pdtran()...
  | All pdtran() tests passed.

  Obtaining array dimensions for all initial allocations:
  
  -----------------------------------------------------------------------
  Parsing control.in (first pass over file, find array dimensions only).
  The contents of control.in will be repeated verbatim below
  unless switched off by setting 'verbatim_writeout .false.' .
  in the first line of control.in .
  -----------------------------------------------------------------------
  
  #########################################################################################
  #
  #  Volker Blum, FHI 2009 : Test run input file control.in for simple H2O
  #
  #########################################################################################
  #
  #  Physical model
  #
    xc                 pbe
    vdw_correction_hirshfeld
    spin               none
    relativistic       none
    charge             0.
  #
  #  SCF convergence
  #
    occupation_type    gaussian 0.01
    mixer              pulay
      n_max_pulay        10
      charge_mix_param   0.2
    sc_accuracy_rho    1E-5
    sc_accuracy_eev    1E-3
    sc_accuracy_etot   1E-6
    sc_accuracy_forces 1E-4
    sc_iter_limit      100
  #
  #  Relaxation
  #
  #  relax_geometry   bfgs 1.e-3
  #
  ################################################################################
  #
  #  FHI-aims code project
  #  VB, Fritz-Haber Institut, 2009
  #
  #  Suggested "light" defaults for H atom (to be pasted into control.in file)
  #  Be sure to double-check any results obtained with these settings for post-processing,
  #  e.g., with the "tight" defaults and larger basis sets.
  #
  ################################################################################
    species        H
  #     global species definitions
      nucleus             1
      mass                1.00794
  #
      l_hartree           4
  #
      cut_pot             3.5  1.5  1.0
      basis_dep_cutoff    1e-4
  #
      radial_base         24 5.0
      radial_multiplier   1
      angular_grids       specified
        division   0.2421   50
        division   0.3822  110
        division   0.4799  194
        division   0.5341  302
  #      division   0.5626  434
  #      division   0.5922  590
  #      division   0.6542  770
  #      division   0.6868 1202
  #      outer_grid  770
        outer_grid  302
  ################################################################################
  #
  #  Definition of "minimal" basis
  #
  ################################################################################
  #     valence basis states
      valence      1  s   1.
  #     ion occupancy
      ion_occ      1  s   0.5
  ################################################################################
  #
  #  Suggested additional basis functions. For production calculations,
  #  uncomment them one after another (the most important basis functions are
  #  listed first).
  #
  #  Basis constructed for dimers: 0.5 A, 0.7 A, 1.0 A, 1.5 A, 2.5 A
  #
  ################################################################################
  #  "First tier" - improvements: -1014.90 meV to -62.69 meV
       hydro 2 s 2.1
       hydro 2 p 3.5
  #  "Second tier" - improvements: -12.89 meV to -1.83 meV
  #     hydro 1 s 0.85
  #     hydro 2 p 3.7
  #     hydro 2 s 1.2
  #     hydro 3 d 7
  #  "Third tier" - improvements: -0.25 meV to -0.12 meV
  #     hydro 4 f 11.2
  #     hydro 3 p 4.8
  #     hydro 4 d 9
  #     hydro 3 s 3.2
  ################################################################################
  #
  #  FHI-aims code project
  #  VB, Fritz-Haber Institut, 2009
  #
  #  Suggested "light" defaults for C atom (to be pasted into control.in file)
  #  Be sure to double-check any results obtained with these settings for post-processing,
  #  e.g., with the "tight" defaults and larger basis sets.
  #
  ################################################################################
    species        C
  #     global species definitions
      nucleus             6
      mass                12.0107
  #
      l_hartree           4
  #
      cut_pot             3.5  1.5  1.0
      basis_dep_cutoff    1e-4
  #
      radial_base         34 5.0
      radial_multiplier   1
      angular_grids specified
        division   0.3326   50
        division   0.5710  110
        division   0.7727  194
        division   0.8772  302
  #      division   0.9334  434
  #      division   0.9625  590
  #      division   0.9924  770
  #      division   1.0230  974
  #      division   1.4589 1202
  #     outer_grid  974
       outer_grid 302
  ################################################################################
  #
  #  Definition of "minimal" basis
  #
  ################################################################################
  #     valence basis states
      valence      2  s   2.
      valence      2  p   2.
  #     ion occupancy
      ion_occ      2  s   1.
      ion_occ      2  p   1.
  ################################################################################
  #
  #  Suggested additional basis functions. For production calculations,
  #  uncomment them one after another (the most important basis functions are
  #  listed first).
  #
  #  Constructed for dimers: 1.0 A, 1.25 A, 1.5 A, 2.0 A, 3.0 A
  #
  ################################################################################
  #  "First tier" - improvements: -1214.57 meV to -155.61 meV
       hydro 2 p 1.7
       hydro 3 d 6
       hydro 2 s 4.9
  #  "Second tier" - improvements: -67.75 meV to -5.23 meV
  #     hydro 4 f 9.8
  #     hydro 3 p 5.2
  #     hydro 3 s 4.3
  #     hydro 5 g 14.4
  #     hydro 3 d 6.2
  #  "Third tier" - improvements: -2.43 meV to -0.60 meV
  #     hydro 2 p 5.6
  #     hydro 2 s 1.4
  #     hydro 3 d 4.9
  #     hydro 4 f 11.2
  #  "Fourth tier" - improvements: -0.39 meV to -0.18 meV
  #     hydro 2 p 2.1
  #     hydro 5 g 16.4
  #     hydro 4 d 13.2
  #     hydro 3 s 13.6
  #     hydro 4 f 17.6
  #  Further basis functions - improvements: -0.08 meV and below
  #     hydro 3 s 2
  #     hydro 3 p 6
  #     hydro 4 d 20
  ################################################################################
  #
  #  FHI-aims code project
  #  VB, Fritz-Haber Institut, 2009
  #
  #  Suggested "light" defaults for N atom (to be pasted into control.in file)
  #  Be sure to double-check any results obtained with these settings for post-processing,
  #  e.g., with the "tight" defaults and larger basis sets.
  #
  ################################################################################
    species        N
  #     global species definitions
      nucleus             7
      mass                14.0067
  #
      l_hartree           4
  #
      cut_pot             3.5  1.5  1.0
      basis_dep_cutoff    1e-4
  #
      radial_base         35 5.0
      radial_multiplier   1
      angular_grids       specified
        division   0.2599   50
        division   0.4601  110
        division   0.5885  194
        division   0.6503  302
  #      division   0.6939  434
  #      division   0.7396  590
  #      division   0.7632  770
  #      division   0.8122  974
  #      division   1.1604 1202
  #      outer_grid  974
        outer_grid  302
  ################################################################################
  #
  #  Definition of "minimal" basis
  #
  ################################################################################
  #     valence basis states
      valence      2  s   2.
      valence      2  p   3.
  #     ion occupancy
      ion_occ      2  s   1.
      ion_occ      2  p   2.
  ################################################################################
  #
  #  Suggested additional basis functions. For production calculations,
  #  uncomment them one after another (the most important basis functions are
  #  listed first).
  #
  #  Constructed for dimers: 1.0 A, 1.1 A, 1.5 A, 2.0 A, 3.0 A
  #
  ################################################################################
  #  "First tier" - improvements: -1193.42 meV to -220.60 meV
       hydro 2 p 1.8
       hydro 3 d 6.8
       hydro 3 s 5.8
  #  "Second tier" - improvements: -80.21 meV to -6.86 meV
  #     hydro 4 f 10.8
  #     hydro 3 p 5.8
  #     hydro 1 s 0.8
  #     hydro 5 g 16
  #     hydro 3 d 4.9
  #  "Third tier" - improvements: -4.29 meV to -0.53 meV
  #     hydro 3 s 16
  #     ionic 2 p auto
  #     hydro 3 d 6.6
  #     hydro 4 f 11.6
  #  "Fourth tier" - improvements: -0.75 meV to -0.25 meV
  #     hydro 2 p 4.5
  #     hydro 2 s 2.4
  #     hydro 5 g 14.4
  #     hydro 4 d 14.4
  #     hydro 4 f 16.8
  # Further basis functions - -0.21 meV and below
  #     hydro 3 p 14.8
  #     hydro 3 s 4.4
  #     hydro 3 d 19.6
  #     hydro 5 g 12.8
  ################################################################################
  #
  #  FHI-aims code project
  #  VB, Fritz-Haber Institut, 2009
  #
  #  Suggested "light" defaults for O atom (to be pasted into control.in file)
  #  Be sure to double-check any results obtained with these settings for post-processing,
  #  e.g., with the "tight" defaults and larger basis sets.
  #
  ################################################################################
    species        O
  #     global species definitions
      nucleus             8
      mass                15.9994
  #
      l_hartree           4
  #
      cut_pot             3.5  1.5  1.0
      basis_dep_cutoff    1e-4
  #
      radial_base         36 5.0
      radial_multiplier   1
       angular_grids specified
        division   0.2659   50
        division   0.4451  110
        division   0.6052  194
        division   0.7543  302
  #      division   0.8014  434
  #      division   0.8507  590
  #      division   0.8762  770
  #      division   0.9023  974
  #      division   1.2339 1202
  #      outer_grid 974
        outer_grid 302
  ################################################################################
  #
  #  Definition of "minimal" basis
  #
  ################################################################################
  #     valence basis states
      valence      2  s   2.
      valence      2  p   4.
  #     ion occupancy
      ion_occ      2  s   1.
      ion_occ      2  p   3.
  ################################################################################
  #
  #  Suggested additional basis functions. For production calculations,
  #  uncomment them one after another (the most important basis functions are
  #  listed first).
  #
  #  Constructed for dimers: 1.0 A, 1.208 A, 1.5 A, 2.0 A, 3.0 A
  #
  ################################################################################
  #  "First tier" - improvements: -699.05 meV to -159.38 meV
       hydro 2 p 1.8
       hydro 3 d 7.6
       hydro 3 s 6.4
  #  "Second tier" - improvements: -49.91 meV to -5.39 meV
  #     hydro 4 f 11.6
  #     hydro 3 p 6.2
  #     hydro 3 d 5.6
  #     hydro 5 g 17.6
  #     hydro 1 s 0.75
  #  "Third tier" - improvements: -2.83 meV to -0.50 meV
  #     ionic 2 p auto
  #     hydro 4 f 10.8
  #     hydro 4 d 4.7
  #     hydro 2 s 6.8
  #  "Fourth tier" - improvements: -0.40 meV to -0.12 meV
  #     hydro 3 p 5
  #     hydro 3 s 3.3
  #     hydro 5 g 15.6
  #     hydro 4 f 17.6
  #     hydro 4 d 14
  # Further basis functions - -0.08 meV and below
  #     hydro 3 s 2.1
  #     hydro 4 d 11.6
  #     hydro 3 p 16
  #     hydro 2 s 17.2
  
  -----------------------------------------------------------------------
  Completed first pass over input file control.in .
  -----------------------------------------------------------------------
  
  
  -----------------------------------------------------------------------
  Parsing geometry.in (first pass over file, find array dimensions only).
  The contents of geometry.in will be repeated verbatim below
  unless switched off by setting 'verbatim_writeout .false.' .
  in the first line of geometry.in .
  -----------------------------------------------------------------------
  
  atom  0.00000 0.00000 0.00000 C
  atom  1.09300 0.00000 0.00000 H
  atom  -0.47961 0.00000 -1.41207 N
  atom  0.25864 -0.37601 -2.00825 H
  atom  -1.31261 -0.58169 -1.47434 H
  atom  -0.49584 1.26211 0.72868 C
  atom  -1.58789 1.28919 0.74431 H
  atom  -0.13407 1.27425 1.75947 H
  atom  -0.13407 2.16087 0.22380 H
  atom  -0.39425 -1.28861 0.74398 C
  atom  -0.10189 -1.56493 1.88303 O
  atom  -1.10210 -2.13717 0.06896 O
  atom  -1.96929 -1.70928 0.16833 H
  
  -----------------------------------------------------------------------
  Completed first pass over input file geometry.in .
  -----------------------------------------------------------------------
  

  Basic array size parameters:
  | Number of species                 :        4
  | Number of atoms                   :       13
  | Max. basis fn. angular momentum   :        2
  | Max. atomic/ionic basis occupied n:        2
  | Max. number of basis fn. types    :        2
  | Max. radial fns per species/type  :        3
  | Max. logarithmic grid size        :     1301
  | Max. radial integration grid size :       36
  | Max. angular integration grid size:      302
  | Max. angular grid division number :        8
  | Radial grid for Hartree potential :     1301
  | Number of spin channels           :        1

------------------------------------------------------------
          Reading file control.in.
------------------------------------------------------------
  XC: Using PBE gradient-corrected functionals.
  Spin treatment: No spin polarisation.
  Non-relativistic treatment of kinetic energy.
  Charge =   0.000000E+00: Neutral system requested explicitly.
  Occupation type: Gaussian broadening, width =   0.100000E-01 eV.
  Using pulay charge density mixing.
  Pulay mixing - number of memorized iterations:   10
  Charge density mixing - mixing parameter:     0.2000
  Convergence accuracy of self-consistent charge density:  0.1000E-04
  Convergence accuracy of sum of eigenvalues:  0.1000E-02
  Convergence accuracy of total energy:  0.1000E-05
  Convergence accuracy of forces:  0.1000E-03
  Maximum number of s.-c. iterations  :   100
 
  Reading configuration options for species H                   .
  | Found nuclear charge :   1.0000
  | Found atomic mass :    1.00794000000000      amu
  | Found l_max for Hartree potential  :   4
  | Found cutoff potl. onset [A], width [A], scale factor :    3.50000    1.50000    1.00000
  | Threshold for basis-dependent cutoff potential is   0.100000E-03
  | Found data for basic radial integration grid :    24 points, outermost radius =    5.000 A
  | Found multiplier for basic radial grid :   1
  | Found angular grid specification: user-specified.
  | Specified grid contains     5 separate shells.
  | Check grid settings after all constraints further below.
  | Found free-atom valence shell :  1 s   1.000
  | No ionic wave fns used. Skipping ion_occ.
  | Found hydrogenic basis function :  2 s   2.100
  | Found hydrogenic basis function :  2 p   3.500
  Species H                   : Missing cutoff potential type.
  Defaulting to exp(1/x)/(1-x)^2 type cutoff potential.
  Species H : No 'logarithmic' tag. Using default grid for free atom:
  | Default logarithmic grid data [bohr] : 0.1000E-03 0.1000E+03 0.1012E+01
  Species H : On-site basis accuracy parameter (for Gram-Schmidt orthonormalisation) not specified.
  Using default value basis_acc =  0.1000000E-03.
  Species H                   : Using default innermost maximum threshold i_radial=  2 for radial functions.
  Species H                   : Default cutoff onset for free atom density etc. : 0.35000000E+01 AA.
  Species H                   : Basic radial grid will be enhanced according to radial_multiplier =   1, to contain    24 grid points.
 
  Reading configuration options for species C                   .
  | Found nuclear charge :   6.0000
  | Found atomic mass :    12.0107000000000      amu
  | Found l_max for Hartree potential  :   4
  | Found cutoff potl. onset [A], width [A], scale factor :    3.50000    1.50000    1.00000
  | Threshold for basis-dependent cutoff potential is   0.100000E-03
  | Found data for basic radial integration grid :    34 points, outermost radius =    5.000 A
  | Found multiplier for basic radial grid :   1
  | Found angular grid specification: user-specified.
  | Specified grid contains     5 separate shells.
  | Check grid settings after all constraints further below.
  | Found free-atom valence shell :  2 s   2.000
  | Found free-atom valence shell :  2 p   2.000
  | No ionic wave fns used. Skipping ion_occ.
  | No ionic wave fns used. Skipping ion_occ.
  | Found hydrogenic basis function :  2 p   1.700
  | Found hydrogenic basis function :  3 d   6.000
  | Found hydrogenic basis function :  2 s   4.900
  Species C                   : Missing cutoff potential type.
  Defaulting to exp(1/x)/(1-x)^2 type cutoff potential.
  Species C : No 'logarithmic' tag. Using default grid for free atom:
  | Default logarithmic grid data [bohr] : 0.1000E-03 0.1000E+03 0.1012E+01
  Species C : On-site basis accuracy parameter (for Gram-Schmidt orthonormalisation) not specified.
  Using default value basis_acc =  0.1000000E-03.
  Species C                   : Using default innermost maximum threshold i_radial=  2 for radial functions.
  Species C                   : Default cutoff onset for free atom density etc. : 0.35000000E+01 AA.
  Species C                   : Basic radial grid will be enhanced according to radial_multiplier =   1, to contain    34 grid points.
 
  Reading configuration options for species N                   .
  | Found nuclear charge :   7.0000
  | Found atomic mass :    14.0067000000000      amu
  | Found l_max for Hartree potential  :   4
  | Found cutoff potl. onset [A], width [A], scale factor :    3.50000    1.50000    1.00000
  | Threshold for basis-dependent cutoff potential is   0.100000E-03
  | Found data for basic radial integration grid :    35 points, outermost radius =    5.000 A
  | Found multiplier for basic radial grid :   1
  | Found angular grid specification: user-specified.
  | Specified grid contains     5 separate shells.
  | Check grid settings after all constraints further below.
  | Found free-atom valence shell :  2 s   2.000
  | Found free-atom valence shell :  2 p   3.000
  | No ionic wave fns used. Skipping ion_occ.
  | No ionic wave fns used. Skipping ion_occ.
  | Found hydrogenic basis function :  2 p   1.800
  | Found hydrogenic basis function :  3 d   6.800
  | Found hydrogenic basis function :  3 s   5.800
  Species N                   : Missing cutoff potential type.
  Defaulting to exp(1/x)/(1-x)^2 type cutoff potential.
  Species N : No 'logarithmic' tag. Using default grid for free atom:
  | Default logarithmic grid data [bohr] : 0.1000E-03 0.1000E+03 0.1012E+01
  Species N : On-site basis accuracy parameter (for Gram-Schmidt orthonormalisation) not specified.
  Using default value basis_acc =  0.1000000E-03.
  Species N                   : Using default innermost maximum threshold i_radial=  2 for radial functions.
  Species N                   : Default cutoff onset for free atom density etc. : 0.35000000E+01 AA.
  Species N                   : Basic radial grid will be enhanced according to radial_multiplier =   1, to contain    35 grid points.
 
  Reading configuration options for species O                   .
  | Found nuclear charge :   8.0000
  | Found atomic mass :    15.9994000000000      amu
  | Found l_max for Hartree potential  :   4
  | Found cutoff potl. onset [A], width [A], scale factor :    3.50000    1.50000    1.00000
  | Threshold for basis-dependent cutoff potential is   0.100000E-03
  | Found data for basic radial integration grid :    36 points, outermost radius =    5.000 A
  | Found multiplier for basic radial grid :   1
  | Found angular grid specification: user-specified.
  | Specified grid contains     5 separate shells.
  | Check grid settings after all constraints further below.
  | Found free-atom valence shell :  2 s   2.000
  | Found free-atom valence shell :  2 p   4.000
  | No ionic wave fns used. Skipping ion_occ.
  | No ionic wave fns used. Skipping ion_occ.
  | Found hydrogenic basis function :  2 p   1.800
  | Found hydrogenic basis function :  3 d   7.600
  | Found hydrogenic basis function :  3 s   6.400
  Species O                   : Missing cutoff potential type.
  Defaulting to exp(1/x)/(1-x)^2 type cutoff potential.
  Species O : No 'logarithmic' tag. Using default grid for free atom:
  | Default logarithmic grid data [bohr] : 0.1000E-03 0.1000E+03 0.1012E+01
  Species O : On-site basis accuracy parameter (for Gram-Schmidt orthonormalisation) not specified.
  Using default value basis_acc =  0.1000000E-03.
  Species O                   : Using default innermost maximum threshold i_radial=  2 for radial functions.
  Species O                   : Default cutoff onset for free atom density etc. : 0.35000000E+01 AA.
  Species O                   : Basic radial grid will be enhanced according to radial_multiplier =   1, to contain    36 grid points.
 
  Finished reading input file 'control.in'. Consistency checks are next.
 
  MPI_IN_PLACE appears to work with this MPI implementation.
  | Keeping use_mpi_in_place .true. (see manual).
  Target number of points in a grid batch is not set. Defaulting to  100
  Method for grid partitioning is not set. Defaulting to parallel hash+maxmin partitioning.
  Batch size limit is not set. Defaulting to    200
  By default, will store active basis functions for each batch.
  If in need of memory, prune_basis_once .false. can be used to disable this option.
  communication_type for Hartree potential was not specified.
  Defaulting to calc_hartree .
  Pulay mixer: Number of initial linear mixing iterations not set.
  Defaulting to    0 iterations.
  Work space size for distributed Hartree potential not set.
  Defaulting to   0.200000E+03 MB.
  Algorithm-dependent basis array size parameters:
  | n_max_pulay                         :       10
  Presetting      1001 iterations before the initial mixing cycle
  is restarted anyway using the sc_init_iter criterion / keyword.
  Presetting a factor      1.000 between actual scf density residual
  and density convergence criterion sc_accuracy_rho below which sc_init_iter
  takes no effect.
  Geometry relaxation not requested: no relaxation will be performed.
  Handling of forces: Unphysical translation and rotation will be removed from forces.
  No accuracy limit for integral partition fn. given. Defaulting to  0.1000E-14.
  No threshold value for u(r) in integrations given. Defaulting to  0.1000E-05.
  No accuracy for occupation numbers given. Defaulting to  0.1000E-12.
  No threshold value for occupation numbers given. Defaulting to  0.0000E+00.
  No accuracy for fermi level given. Defaulting to  0.1000E-19.
  Maximum # of iterations to find E_F not set. Defaulting to  200.
  Preferred method for the eigenvalue solver ('KS_method') not specified in 'control.in'.
  Defaulting to serial version, 'lapack_fast'.
  Will not use alltoall communication since running on < 1024 CPUs.
  Threshold for basis singularities not set.
  Default threshold for basis singularities:  0.1000E-04
  partition_type (choice of integration weights) for integrals was not specified.
  | Using a version of the partition function of Stratmann and coworkers ('stratmann_smoother').
  | At each grid point, the set of atoms used to build the partition table is smoothly restricted to
  | only those atoms whose free-atom density would be non-zero at that grid point.
  Partitioning for Hartree potential was not defined. Using partition_type for integrals.
  | Adjusted default value of keyword multip_moments_threshold to:       0.10000000E-11
  | This value may affect high angular momentum components of the Hartree potential in periodic systems.
  No q(lm)/r^(l+1) cutoff set for long-range Hartree potential.
  | Using default value of  0.100000E-09 .
  | Verify using the multipole_threshold keyword.
  Defaulting to new monopole extrapolation.
  Density update method: automatic selection selected.
------------------------------------------------------------


------------------------------------------------------------
          Reading geometry description geometry.in.
------------------------------------------------------------
  Input structure read successfully.
  The structure contains       13 atoms,  and a total of         48.000 electrons.

  Input geometry:
  | No unit cell requested.
  | Atomic structure:
  |       Atom                x [A]            y [A]            z [A]
  |    1: Species C             0.00000000        0.00000000        0.00000000
  |    2: Species H             1.09300000        0.00000000        0.00000000
  |    3: Species N            -0.47961000        0.00000000       -1.41207000
  |    4: Species H             0.25864000       -0.37601000       -2.00825000
  |    5: Species H            -1.31261000       -0.58169000       -1.47434000
  |    6: Species C            -0.49584000        1.26211000        0.72868000
  |    7: Species H            -1.58789000        1.28919000        0.74431000
  |    8: Species H            -0.13407000        1.27425000        1.75947000
  |    9: Species H            -0.13407000        2.16087000        0.22380000
  |   10: Species C            -0.39425000       -1.28861000        0.74398000
  |   11: Species O            -0.10189000       -1.56493000        1.88303000
  |   12: Species O            -1.10210000       -2.13717000        0.06896000
  |   13: Species H            -1.96929000       -1.70928000        0.16833000
  |

  | The smallest distance between any two atoms is         0.97210223 AA.
  |
  | The first atom of this pair is atom number                     12 .
  | The second atom of this pair is atom number                    13 .

  Number of empty states per atom not set in control.in - providing a guess from actual geometry.
  | Total number of empty states used during s.c.f. cycle:       29
  If you use a very high smearing, use empty_states (per atom!) in control.in to increase this value.

  Structure-dependent array size parameters: 
  | Maximum number of distinct radial functions  :       21
  | Maximum number of basis functions            :      119
  | Number of Kohn-Sham states (occupied + empty):       53
------------------------------------------------------------

------------------------------------------------------------
          Preparing all fixed parts of the calculation.
------------------------------------------------------------
  Determining machine precision:
    2.225073858507201E-308
  Setting up grids for atomic and cluster calculations.

  Creating wave function, potential, and density for free atoms.

  Species: H

  List of occupied orbitals and eigenvalues:
    n    l              occ      energy [Ha]    energy [eV]
    1    0           1.0000        -0.237589        -6.4651


  Species: C

  List of occupied orbitals and eigenvalues:
    n    l              occ      energy [Ha]    energy [eV]
    1    0           2.0000       -10.038835      -273.1706
    2    0           2.0000        -0.502696       -13.6791
    2    1           2.0000        -0.191971        -5.2238


  Species: N

  List of occupied orbitals and eigenvalues:
    n    l              occ      energy [Ha]    energy [eV]
    1    0           2.0000       -14.128000      -384.4424
    2    0           2.0000        -0.681077       -18.5330
    2    1           3.0000        -0.259788        -7.0692


  Species: O

  List of occupied orbitals and eigenvalues:
    n    l              occ      energy [Ha]    energy [eV]
    1    0           2.0000       -18.898188      -514.2459
    2    0           2.0000        -0.878505       -23.9053
    2    1           4.0000        -0.331779        -9.0282

  Creating fixed part of basis set: Ionic, confined, hydrogenic.
 
  H                    hydrogenic:
 
  List of hydrogenic basis orbitals: 
    n    l      effective z      eigenvalue [eV]  inner max. [A]     outer max. [A]     outer radius [A]   
    2    0         2.100000       -14.9728           0.193243           1.317208           4.583499
    2    1         3.500000       -41.6669           0.602369           0.602369           3.723403
 
 
  C                    hydrogenic:
 
  List of hydrogenic basis orbitals: 
    n    l      effective z      eigenvalue [eV]  inner max. [A]     outer max. [A]     outer radius [A]   
    2    1         1.700000        -9.7616           1.230570           1.230570           4.607917
    3    2         6.000000       -54.4224           0.792453           0.792453           3.883070
    2    0         4.900000       -81.6679           0.082559           0.562749           3.078220
 
 
  N                    hydrogenic:
 
  List of hydrogenic basis orbitals: 
    n    l      effective z      eigenvalue [eV]  inner max. [A]     outer max. [A]     outer radius [A]   
    2    1         1.800000       -10.9749           1.177451           1.177451           4.573712
    3    2         6.800000       -69.9026           0.704619           0.704619           3.538137
    3    0         5.800000       -50.8545           0.067388           1.191934           4.250239
 
 
  O                    hydrogenic:
 
  List of hydrogenic basis orbitals: 
    n    l      effective z      eigenvalue [eV]  inner max. [A]     outer max. [A]     outer radius [A]   
    2    1         1.800000       -10.9749           1.164242           1.164242           4.578029
    3    2         7.600000       -87.3180           0.624125           0.624125           3.251020
    3    0         6.400000       -61.9207           0.061167           1.081902           4.001998
 

  Adding cutoff potential to free-atom effective potential.
  Creating atomic-like basis functions for current effective potential.

  Species H                   :

  List of atomic basis orbitals and eigenvalues:
    n    l      energy [Ha]    energy [eV]    outer radius [A]
    1    0        -0.237589        -6.4651       4.527807


  Species C                   :

  List of atomic basis orbitals and eigenvalues:
    n    l      energy [Ha]    energy [eV]    outer radius [A]
    1    0       -10.038835      -273.1706       1.934409
    2    0        -0.502696       -13.6791       4.496620
    2    1        -0.191971        -5.2238       4.551928


  Species N                   :

  List of atomic basis orbitals and eigenvalues:
    n    l      energy [Ha]    energy [eV]    outer radius [A]
    1    0       -14.128000      -384.4424       1.637919
    2    0        -0.681077       -18.5330       4.463241
    2    1        -0.259788        -7.0692       4.518138


  Species O                   :

  List of atomic basis orbitals and eigenvalues:
    n    l      energy [Ha]    energy [eV]    outer radius [A]
    1    0       -18.898188      -514.2459       1.415765
    2    0        -0.878505       -23.9053       4.413171
    2    1        -0.331779        -9.0282       4.522403

  Assembling full basis from fixed parts.
  | Species H :   atomic orbital   1 s accepted.
  | Species H :    hydro orbital   2 s accepted.
  | Species H :    hydro orbital   2 p accepted.
  | Species C :   atomic orbital   1 s accepted.
  | Species C :    hydro orbital   2 s accepted.
  | Species C :   atomic orbital   2 s accepted.
  | Species C :   atomic orbital   2 p accepted.
  | Species C :    hydro orbital   2 p accepted.
  | Species C :    hydro orbital   3 d accepted.
  | Species N :   atomic orbital   1 s accepted.
  | Species N :    hydro orbital   3 s accepted.
  | Species N :   atomic orbital   2 s accepted.
  | Species N :   atomic orbital   2 p accepted.
  | Species N :    hydro orbital   2 p accepted.
  | Species N :    hydro orbital   3 d accepted.
  | Species O :   atomic orbital   1 s accepted.
  | Species O :    hydro orbital   3 s accepted.
  | Species O :   atomic orbital   2 s accepted.
  | Species O :   atomic orbital   2 p accepted.
  | Species O :    hydro orbital   2 p accepted.
  | Species O :    hydro orbital   3 d accepted.
 
  Basis size parameters after reduction:
  | Total number of radial functions:       21
  | Total number of basis functions :      119
 
  Per-task memory consumption for arrays in subroutine allocate_ext:
  |           5.250512MB.
  Testing on-site integration grid accuracy.
  |  Species  Function  <phi|h_atom|phi> (log., in eV)  <phi|h_atom|phi> (rad., in eV)
           1        1                 -6.4663192853                 -6.4651273558
           1        2                 13.7111246313                 13.7170609718
           1        3                 25.2673269279                 25.2674696378
           2        4               -273.1705927641               -273.1705631568
           2        5                -10.7109323383                -10.7107120029
           2        6                 17.4381822266                 17.4352413244
           2        7                 -5.2255326521                 -5.2270484734
           2        8                  8.6835629259                  8.6603288385
           2        9                 27.4952418996                 27.4953360207
           3       10               -384.4424306495               -384.4423701208
           3       11                 12.5842251816                 12.5842222903
           3       12                -15.7264628251                -15.7264433455
           3       13                 -7.0696854293                 -7.0701769954
           3       14                  8.8090390882                  8.7901077751
           3       15                 35.9586762123                 35.9588528632
           4       16               -514.2458688638               -514.2457643834
           4       17                 15.1795651126                 15.1795290741
           4       18                -21.5359799773                -21.5360846186
           4       19                 -9.0283069236                 -9.0284644067
           4       20                  8.3027758564                  8.2834874195
           4       21                 45.8339351984                 45.8338762259

  Preparing densities etc. for the partition functions (integrals / Hartree potential).

  Preparations completed.
  max(cpu_time)          :      0.147 s.
  Wall clock time (cpu1) :      0.148 s.
------------------------------------------------------------

------------------------------------------------------------
          Begin self-consistency loop: Initialization.

          Date     :  20200710, Time     :  151028.929
------------------------------------------------------------

  Initializing index lists of integration centers etc. from given atomic structure:
  | Number of centers in hartree potential         :        13
  | Number of centers in hartree multipole         :        13
  | Number of centers in electron density summation:        13
  | Number of centers in basis integrals           :        13
  | Number of centers in integrals                 :        13
  | Number of centers in hamiltonian               :        13
  Partitioning the integration grid into batches with parallel hashing+maxmin method.
  | Number of batches:      956
  | Maximal batch size:     139
  | Minimal batch size:      66
  | Average batch size:      72.851
  | Standard deviation of batch sizes:      17.573

  Integration load balanced across     1 MPI tasks.
  Work distribution over tasks is as follows:
  Task     0 has      69646 integration points.
  Initializing partition tables, free-atom densities, potentials, etc. across the integration grid (initialize_grid_storage).
  | initialize_grid_storage: Actual outermost partition radius vs. multipole_radius_free
  | (-- VB: in principle, multipole_radius_free should be larger, hence this output)
  | Species        1: Confinement radius =              4.999999999999999 AA, multipole_radius_free =              5.054417573612229 AA.
  | Species        1: outer_partition_radius set to              5.054417573612229 AA .
  | Species        2: Confinement radius =              4.999999999999999 AA, multipole_radius_free =              5.019602836301480 AA.
  | Species        2: outer_partition_radius set to              5.019602836301480 AA .
  | Species        3: Confinement radius =              4.999999999999999 AA, multipole_radius_free =              5.043624274424571 AA.
  | Species        3: outer_partition_radius set to              5.043624274424571 AA .
  | Species        4: Confinement radius =              4.999999999999999 AA, multipole_radius_free =              5.048384829883283 AA.
  | Species        4: outer_partition_radius set to              5.048384829883283 AA .
  | Original list of interatomic distances with          13 x         13 entries is created.
  | Net number of integration points:    69646
  | of which are non-zero points    :    59476
  Renormalizing the initial density to the exact electron count on the 3D integration grid.
  | Initial density: Formal number of electrons (from input files) :      48.0000000000
  | Integrated number of electrons on 3D grid     :      47.9998848613
  | Charge integration error                      :      -0.0001151387
  | Normalization factor for density and gradient :       1.0000023987
  Obtaining max. number of non-zero basis functions in each batch (get_n_compute_maxes).
  | Maximal number of non-zero basis functions:      118 in task     0
  Selecting the method for density update.
  Loop over occupied states selected for charge density update.
  Allocating        0.050 MB for KS_eigenvector
  Integrating Hamiltonian matrix: batch-based integration.
  Time summed over all CPUs for integration: real work        0.495 s, elapsed        0.495 s
  Integrating overlap matrix.
  Time summed over all CPUs for integration: real work        0.213 s, elapsed        0.213 s

  Updating Kohn-Sham eigenvalues and eigenvectors using ELSI and the ELPA eigensolver.
  Overlap matrix is nonsingular
  | Lowest eigenvalue of overlap  :  0.49E-02
  | Highest eigenvalue of overlap :  0.62E+01
  Finished singularity check of overlap matrix
  | Time :     0.002 s
  Finished Cholesky decomposition
  | Time :     0.000 s
  Finished transformation to standard eigenproblem
  | Time :     0.000 s
  Starting LAPACK eigensolver
  Finished solving standard eigenproblem
  | Time :     0.002 s
  Finished back-transformation of eigenvectors
  | Time :     0.000 s

  Obtaining occupation numbers and chemical potential using ELSI.
  | Chemical potential (Fermi level):    -9.50957976eV
  Writing Kohn-Sham eigenvalues.

  State    Occupation    Eigenvalue [Ha]    Eigenvalue [eV]
      1       2.00000         -19.008166         -517.23851
      2       2.00000         -18.977255         -516.39737
      3       2.00000         -14.245866         -387.64975
      4       2.00000         -10.166598         -276.64720
      5       2.00000         -10.141370         -275.96073
      6       2.00000         -10.132117         -275.70894
      7       2.00000          -1.183715          -32.21053
      8       2.00000          -1.098479          -29.89114
      9       2.00000          -0.990635          -26.95656
     10       2.00000          -0.861615          -23.44573
     11       2.00000          -0.752291          -20.47089
     12       2.00000          -0.679175          -18.48128
     13       2.00000          -0.638812          -17.38295
     14       2.00000          -0.612017          -16.65384
     15       2.00000          -0.582030          -15.83784
     16       2.00000          -0.566121          -15.40493
     17       2.00000          -0.550448          -14.97845
     18       2.00000          -0.538541          -14.65444
     19       2.00000          -0.514964          -14.01287
     20       2.00000          -0.491582          -13.37662
     21       2.00000          -0.458899          -12.48729
     22       2.00000          -0.426711          -11.61140
     23       2.00000          -0.418810          -11.39640
     24       2.00000          -0.380530          -10.35474
     25       0.00000          -0.162389           -4.41882
     26       0.00000          -0.072110           -1.96222
     27       0.00000          -0.033895           -0.92232
     28       0.00000          -0.020944           -0.56991
     29       0.00000           0.007571            0.20601
     30       0.00000           0.015371            0.41828
     31       0.00000           0.024588            0.66907
     32       0.00000           0.031120            0.84681
     33       0.00000           0.042432            1.15463
     34       0.00000           0.071318            1.94065
     35       0.00000           0.081955            2.23011
     36       0.00000           0.135156            3.67779
     37       0.00000           0.155883            4.24180
     38       0.00000           0.208513            5.67392
     39       0.00000           0.214992            5.85022
     40       0.00000           0.225697            6.14152
     41       0.00000           0.256191            6.97131
     42       0.00000           0.270743            7.36728
     43       0.00000           0.287221            7.81568
     44       0.00000           0.302159            8.22217
     45       0.00000           0.315741            8.59175
     46       0.00000           0.358579            9.75743
     47       0.00000           0.367336            9.99573
     48       0.00000           0.382733           10.41471
     49       0.00000           0.439730           11.96567
     50       0.00000           0.488017           13.27963
     51       0.00000           0.516587           14.05704
     52       0.00000           0.524775           14.27986
     53       0.00000           0.568170           15.46070

  Highest occupied state (VBM) at    -10.35473845 eV
  | Occupation number:      2.00000000

  Lowest unoccupied state (CBM) at    -4.41882147 eV
  | Occupation number:      0.00000000

  Overall HOMO-LUMO gap:      5.93591698 eV.
  Calculating total energy contributions from superposition of free atom densities.

  Total energy components:
  | Sum of eigenvalues            :        -188.83349235 Ha       -5138.42076692 eV
  | XC energy correction          :         -41.78993995 Ha       -1137.16212420 eV
  | XC potential correction       :          53.72184029 Ha        1461.84565224 eV
  | Free-atom electrostatic energy:        -146.85409987 Ha       -3996.10337710 eV
  | Hartree energy correction     :           0.00000000 Ha           0.00000000 eV
  | vdW energy correction         :           0.00000000 Ha           0.00000000 eV
  | Entropy correction            :           0.00000000 Ha           0.00000000 eV
  | ---------------------------
  | Total energy                  :        -323.75569189 Ha       -8809.84061597 eV
  | Total energy, T -> 0          :        -323.75569189 Ha       -8809.84061597 eV  <-- do not rely on this value for anything but (periodic) metals
  | Electronic free energy        :        -323.75569189 Ha       -8809.84061597 eV

  Derived energy quantities:
  | Kinetic energy                :         320.50240064 Ha        8721.31405695 eV
  | Electrostatic energy          :        -602.46815257 Ha      -16393.99254872 eV
  | Energy correction for multipole
  | error in Hartree potential    :           0.00000000 Ha           0.00000000 eV
  | Sum of eigenvalues per atom                           :        -395.26313592 eV
  | Total energy (T->0) per atom                          :        -677.68004738 eV  <-- do not rely on this value for anything but (periodic) metals
  | Electronic free energy per atom                       :        -677.68004738 eV
  Initialize hartree_potential_storage
  Max. number of atoms included in rho_multipole:           13

  End scf initialization - timings             :  max(cpu_time)    wall_clock(cpu1)
  | Time for scf. initialization               :        1.153 s           1.155 s
  | Boundary condition initialization          :        0.000 s           0.000 s
  | Integration                                :        0.708 s           0.709 s
  | Solution of K.-S. eqns.                    :        0.004 s           0.004 s
  | Grid partitioning                          :        0.111 s           0.112 s
  | Preloading free-atom quantities on grid    :        0.002 s           0.003 s
  | Free-atom superposition energy             :        0.085 s           0.085 s
  | Total energy evaluation                    :        0.000 s           0.000 s

  Partial memory accounting:
  | Current value for overall tracked memory usage on task 0  :           0.165 MB
  | Peak value for overall tracked memory usage on task 0     :           0.673 MB after allocating wave
  | Largest tracked array allocation on task 0 so far         :           0.131 MB  when allocating H_times_psi
  Note:  These values currently only include a subset of arrays which are explicitly tracked.
  The "true" memory usage will be greater.
------------------------------------------------------------

------------------------------------------------------------
          Begin self-consistency iteration #    1

  Date     :  20200710, Time     :  151030.084
------------------------------------------------------------
  Evaluating new KS density.
  Integration grid: deviation in total charge (<rho> - N_e) =  -4.263256E-14
  Pulay mixing of updated and previous charge densities.

  Evaluating partitioned Hartree potential by multipole expansion.
  | Analytical far-field extrapolation by fixed multipoles:
  | Hartree multipole sum: apparent total charge =  -0.223775E-03
  Summing up the Hartree potential.
  Time summed over all CPUs for potential: real work        0.288 s, elapsed        0.288 s
  | RMS charge density error from multipole expansion :   0.592291E-02

  Integrating Hamiltonian matrix: batch-based integration.
  Time summed over all CPUs for integration: real work        0.494 s, elapsed        0.494 s

  Updating Kohn-Sham eigenvalues and eigenvectors using ELSI and the ELPA eigensolver.
  Finished Cholesky decomposition
  | Time :     0.000 s
  Finished transformation to standard eigenproblem
  | Time :     0.000 s
  Starting LAPACK eigensolver
  Finished solving standard eigenproblem
  | Time :     0.001 s
  Finished back-transformation of eigenvectors
  | Time :     0.000 s

  Obtaining occupation numbers and chemical potential using ELSI.
  | Chemical potential (Fermi level):    -4.36056254eV
  Writing Kohn-Sham eigenvalues.

  State    Occupation    Eigenvalue [Ha]    Eigenvalue [eV]
      1       2.00000         -18.900898         -514.31959
      2       2.00000         -18.839616         -512.65204
      3       2.00000         -14.097463         -383.61149
      4       2.00000         -10.119050         -275.35337
      5       2.00000         -10.063648         -273.84578
      6       2.00000         -10.029857         -272.92630
      7       2.00000          -1.135755          -30.90546
      8       2.00000          -1.036865          -28.21452
      9       2.00000          -0.922237          -25.09534
     10       2.00000          -0.795672          -21.65134
     11       2.00000          -0.700989          -19.07487
     12       2.00000          -0.635323          -17.28802
     13       2.00000          -0.588679          -16.01876
     14       2.00000          -0.550045          -14.96750
     15       2.00000          -0.529459          -14.40732
     16       2.00000          -0.503445          -13.69944
     17       2.00000          -0.490868          -13.35720
     18       2.00000          -0.476279          -12.96020
     19       2.00000          -0.449209          -12.22361
     20       2.00000          -0.436803          -11.88601
     21       2.00000          -0.398336          -10.83928
     22       2.00000          -0.373309          -10.15826
     23       2.00000          -0.346901           -9.43966
     24       2.00000          -0.306934           -8.35211
     25       0.00000          -0.128468           -3.49581
     26       0.00000          -0.055080           -1.49881
     27       0.00000          -0.003966           -0.10792
     28       0.00000           0.013864            0.37725
     29       0.00000           0.040172            1.09313
     30       0.00000           0.054005            1.46956
     31       0.00000           0.062791            1.70862
     32       0.00000           0.073163            1.99086
     33       0.00000           0.082054            2.23279
     34       0.00000           0.105371            2.86729
     35       0.00000           0.120027            3.26609
     36       0.00000           0.163986            4.46229
     37       0.00000           0.178210            4.84933
     38       0.00000           0.236486            6.43510
     39       0.00000           0.246959            6.72011
     40       0.00000           0.261480            7.11523
     41       0.00000           0.287062            7.81135
     42       0.00000           0.306447            8.33886
     43       0.00000           0.322453            8.77440
     44       0.00000           0.339769            9.24559
     45       0.00000           0.352864            9.60191
     46       0.00000           0.389158           10.58952
     47       0.00000           0.413076           11.24037
     48       0.00000           0.420328           11.43771
     49       0.00000           0.478584           13.02293
     50       0.00000           0.522778           14.22553
     51       0.00000           0.549845           14.96203
     52       0.00000           0.560249           15.24516
     53       0.00000           0.601567           16.36948

  Highest occupied state (VBM) at     -8.35211065 eV
  | Occupation number:      2.00000000

  Lowest unoccupied state (CBM) at    -3.49580563 eV
  | Occupation number:      0.00000000

  Overall HOMO-LUMO gap:      4.85630502 eV.

  Total energy components:
  | Sum of eigenvalues            :        -185.45528048 Ha       -5046.49494471 eV
  | XC energy correction          :         -42.11981719 Ha       -1146.13854069 eV
  | XC potential correction       :          54.15088634 Ha        1473.52058919 eV
  | Free-atom electrostatic energy:        -146.85409987 Ha       -3996.10337710 eV
  | Hartree energy correction     :          -3.29092716 Ha         -89.55068421 eV
  | vdW energy correction         :           0.00000000 Ha           0.00000000 eV
  | Entropy correction            :           0.00000000 Ha           0.00000000 eV
  | ---------------------------
  | Total energy                  :        -323.56923836 Ha       -8804.76695751 eV
  | Total energy, T -> 0          :        -323.56923836 Ha       -8804.76695751 eV  <-- do not rely on this value for anything but (periodic) metals
  | Electronic free energy        :        -323.56923836 Ha       -8804.76695751 eV

  Derived energy quantities:
  | Kinetic energy                :         322.30691587 Ha        8770.41741473 eV
  | Electrostatic energy          :        -603.75633704 Ha      -16429.04583156 eV
  | Energy correction for multipole
  | error in Hartree potential    :           0.01205132 Ha           0.32793317 eV
  | Sum of eigenvalues per atom                           :        -388.19191882 eV
  | Total energy (T->0) per atom                          :        -677.28976596 eV  <-- do not rely on this value for anything but (periodic) metals
  | Electronic free energy per atom                       :        -677.28976596 eV

  Self-consistency convergence accuracy:
  | Change of charge density      :  0.5890E+00
  | Change of sum of eigenvalues  :  0.9193E+02 eV
  | Change of total energy        :  0.5074E+01 eV

  End self-consistency iteration #     1       :  max(cpu_time)    wall_clock(cpu1)
  | Time for this iteration                    :        1.188 s           1.195 s
  | Charge density update                      :        0.395 s           0.395 s
  | Density mixing                             :        0.005 s           0.006 s
  | Hartree multipole update                   :        0.009 s           0.009 s
  | Hartree multipole summation                :        0.282 s           0.289 s
  | Integration                                :        0.494 s           0.493 s
  | Solution of K.-S. eqns.                    :        0.002 s           0.003 s
  | Total energy evaluation                    :        0.000 s           0.000 s

  Partial memory accounting:
  | Current value for overall tracked memory usage on task 0  :           0.165 MB
  | Peak value for overall tracked memory usage on task 0     :           0.690 MB after allocating gradient_basis_wave
  | Largest tracked array allocation on task 0 so far         :           0.394 MB  when allocating gradient_basis_wave
  Note:  These values currently only include a subset of arrays which are explicitly tracked.
  The "true" memory usage will be greater.
------------------------------------------------------------

------------------------------------------------------------
          Begin self-consistency iteration #    2

  Date     :  20200710, Time     :  151031.280
------------------------------------------------------------
  Evaluating new KS density.
  Integration grid: deviation in total charge (<rho> - N_e) =  -1.421085E-14
  Pulay mixing of updated and previous charge densities.

  Evaluating partitioned Hartree potential by multipole expansion.
  | Analytical far-field extrapolation by fixed multipoles:
  | Hartree multipole sum: apparent total charge =  -0.361374E-03
  Summing up the Hartree potential.
  Time summed over all CPUs for potential: real work        0.281 s, elapsed        0.281 s
  | RMS charge density error from multipole expansion :   0.139553E-01

  Integrating Hamiltonian matrix: batch-based integration.
  Time summed over all CPUs for integration: real work        0.494 s, elapsed        0.494 s

  Updating Kohn-Sham eigenvalues and eigenvectors using ELSI and the ELPA eigensolver.
  Finished Cholesky decomposition
  | Time :     0.000 s
  Finished transformation to standard eigenproblem
  | Time :     0.000 s
  Starting LAPACK eigensolver
  Finished solving standard eigenproblem
  | Time :     0.002 s
  Finished back-transformation of eigenvectors
  | Time :     0.000 s

  Obtaining occupation numbers and chemical potential using ELSI.
  | Chemical potential (Fermi level):    -3.19956846eV
  Highest occupied state (VBM) at     -6.38134962 eV
  | Occupation number:      2.00000000

  Lowest unoccupied state (CBM) at    -2.31135507 eV
  | Occupation number:      0.00000000

  Overall HOMO-LUMO gap:      4.06999455 eV.

  Checking to see if s.c.f. parameters should be adjusted.

  Total energy components:
  | Sum of eigenvalues            :        -181.92783700 Ha       -4950.50832390 eV
  | XC energy correction          :         -42.47714341 Ha       -1155.86188187 eV
  | XC potential correction       :          54.61408824 Ha        1486.12495431 eV
  | Free-atom electrostatic energy:        -146.85409987 Ha       -3996.10337710 eV
  | Hartree energy correction     :          -6.84375981 Ha        -186.22817959 eV
  | vdW energy correction         :           0.00000000 Ha           0.00000000 eV
  | Entropy correction            :           0.00000000 Ha           0.00000000 eV
  | ---------------------------
  | Total energy                  :        -323.48875185 Ha       -8802.57680815 eV
  | Total energy, T -> 0          :        -323.48875185 Ha       -8802.57680815 eV  <-- do not rely on this value for anything but (periodic) metals
  | Electronic free energy        :        -323.48875185 Ha       -8802.57680815 eV

  Derived energy quantities:
  | Kinetic energy                :         323.62064316 Ha        8806.16575304 eV
  | Electrostatic energy          :        -604.63225160 Ha      -16452.88067932 eV
  | Energy correction for multipole
  | error in Hartree potential    :           0.02633663 Ha           0.71665620 eV
  | Sum of eigenvalues per atom                           :        -380.80833261 eV
  | Total energy (T->0) per atom                          :        -677.12129293 eV  <-- do not rely on this value for anything but (periodic) metals
  | Electronic free energy per atom                       :        -677.12129293 eV

  Self-consistency convergence accuracy:
  | Change of charge density      :  0.3688E+00
  | Change of sum of eigenvalues  :  0.9599E+02 eV
  | Change of total energy        :  0.2190E+01 eV

  End self-consistency iteration #     2       :  max(cpu_time)    wall_clock(cpu1)
  | Time for this iteration                    :        1.181 s           1.181 s
  | Charge density update                      :        0.387 s           0.387 s
  | Density mixing                             :        0.007 s           0.007 s
  | Hartree multipole update                   :        0.009 s           0.009 s
  | Hartree multipole summation                :        0.281 s           0.282 s
  | Integration                                :        0.494 s           0.494 s
  | Solution of K.-S. eqns.                    :        0.002 s           0.002 s
  | Total energy evaluation                    :        0.000 s           0.000 s

  Partial memory accounting:
  | Current value for overall tracked memory usage on task 0  :           0.166 MB
  | Peak value for overall tracked memory usage on task 0     :           0.690 MB after allocating gradient_basis_wave
  | Largest tracked array allocation on task 0 so far         :           0.394 MB  when allocating gradient_basis_wave
  Note:  These values currently only include a subset of arrays which are explicitly tracked.
  The "true" memory usage will be greater.
------------------------------------------------------------

------------------------------------------------------------
          Begin self-consistency iteration #    3

  Date     :  20200710, Time     :  151032.462
------------------------------------------------------------
  Evaluating new KS density.
  Integration grid: deviation in total charge (<rho> - N_e) =   4.263256E-14
  Pulay mixing of updated and previous charge densities.

  Evaluating partitioned Hartree potential by multipole expansion.
  | Analytical far-field extrapolation by fixed multipoles:
  | Hartree multipole sum: apparent total charge =  -0.459453E-03
  Summing up the Hartree potential.
  Time summed over all CPUs for potential: real work        0.281 s, elapsed        0.281 s
  | RMS charge density error from multipole expansion :   0.218294E-01

  Integrating Hamiltonian matrix: batch-based integration.
  Time summed over all CPUs for integration: real work        0.493 s, elapsed        0.493 s

  Updating Kohn-Sham eigenvalues and eigenvectors using ELSI and the ELPA eigensolver.
  Finished Cholesky decomposition
  | Time :     0.000 s
  Finished transformation to standard eigenproblem
  | Time :     0.000 s
  Starting LAPACK eigensolver
  Finished solving standard eigenproblem
  | Time :     0.002 s
  Finished back-transformation of eigenvectors
  | Time :     0.000 s

  Obtaining occupation numbers and chemical potential using ELSI.
  | Chemical potential (Fermi level):    -2.56326542eV
  Highest occupied state (VBM) at     -5.69743867 eV
  | Occupation number:      2.00000000

  Lowest unoccupied state (CBM) at    -1.62973681 eV
  | Occupation number:      0.00000000

  Overall HOMO-LUMO gap:      4.06770186 eV.

  Total energy components:
  | Sum of eigenvalues            :        -180.59131395 Ha       -4914.13968120 eV
  | XC energy correction          :         -42.63164753 Ha       -1160.06615294 eV
  | XC potential correction       :          54.81131575 Ha        1491.49178790 eV
  | Free-atom electrostatic energy:        -146.85409987 Ha       -3996.10337710 eV
  | Hartree energy correction     :          -8.20953087 Ha        -223.39270114 eV
  | vdW energy correction         :           0.00000000 Ha           0.00000000 eV
  | Entropy correction            :           0.00000000 Ha           0.00000000 eV
  | ---------------------------
  | Total energy                  :        -323.47527648 Ha       -8802.21012449 eV
  | Total energy, T -> 0          :        -323.47527648 Ha       -8802.21012449 eV  <-- do not rely on this value for anything but (periodic) metals
  | Electronic free energy        :        -323.47527648 Ha       -8802.21012449 eV

  Derived energy quantities:
  | Kinetic energy                :         323.25289252 Ha        8796.15874907 eV
  | Electrostatic energy          :        -604.09652146 Ha      -16438.30272061 eV
  | Energy correction for multipole
  | error in Hartree potential    :           0.03706326 Ha           1.00854253 eV
  | Sum of eigenvalues per atom                           :        -378.01074471 eV
  | Total energy (T->0) per atom                          :        -677.09308650 eV  <-- do not rely on this value for anything but (periodic) metals
  | Electronic free energy per atom                       :        -677.09308650 eV

  Self-consistency convergence accuracy:
  | Change of charge density      :  0.2081E+00
  | Change of sum of eigenvalues  :  0.3637E+02 eV
  | Change of total energy        :  0.3667E+00 eV

  End self-consistency iteration #     3       :  max(cpu_time)    wall_clock(cpu1)
  | Time for this iteration                    :        1.181 s           1.182 s
  | Charge density update                      :        0.387 s           0.387 s
  | Density mixing                             :        0.008 s           0.008 s
  | Hartree multipole update                   :        0.009 s           0.009 s
  | Hartree multipole summation                :        0.281 s           0.282 s
  | Integration                                :        0.493 s           0.493 s
  | Solution of K.-S. eqns.                    :        0.002 s           0.002 s
  | Total energy evaluation                    :        0.000 s           0.000 s

  Partial memory accounting:
  | Current value for overall tracked memory usage on task 0  :           0.166 MB
  | Peak value for overall tracked memory usage on task 0     :           0.691 MB after allocating gradient_basis_wave
  | Largest tracked array allocation on task 0 so far         :           0.394 MB  when allocating gradient_basis_wave
  Note:  These values currently only include a subset of arrays which are explicitly tracked.
  The "true" memory usage will be greater.
------------------------------------------------------------

------------------------------------------------------------
          Begin self-consistency iteration #    4

  Date     :  20200710, Time     :  151033.644
------------------------------------------------------------
  Evaluating new KS density.
  Integration grid: deviation in total charge (<rho> - N_e) =  -4.973799E-14
  Pulay mixing of updated and previous charge densities.

  Evaluating partitioned Hartree potential by multipole expansion.
  | Analytical far-field extrapolation by fixed multipoles:
  | Hartree multipole sum: apparent total charge =  -0.493890E-03
  Summing up the Hartree potential.
  Time summed over all CPUs for potential: real work        0.281 s, elapsed        0.281 s
  | RMS charge density error from multipole expansion :   0.254015E-01

  Integrating Hamiltonian matrix: batch-based integration.
  Time summed over all CPUs for integration: real work        0.494 s, elapsed        0.494 s

  Updating Kohn-Sham eigenvalues and eigenvectors using ELSI and the ELPA eigensolver.
  Finished Cholesky decomposition
  | Time :     0.000 s
  Finished transformation to standard eigenproblem
  | Time :     0.000 s
  Starting LAPACK eigensolver
  Finished solving standard eigenproblem
  | Time :     0.002 s
  Finished back-transformation of eigenvectors
  | Time :     0.000 s

  Obtaining occupation numbers and chemical potential using ELSI.
  | Chemical potential (Fermi level):    -2.45473658eV
  Highest occupied state (VBM) at     -5.51040453 eV
  | Occupation number:      2.00000000

  Lowest unoccupied state (CBM) at    -1.52931547 eV
  | Occupation number:      0.00000000

  Overall HOMO-LUMO gap:      3.98108906 eV.

  Total energy components:
  | Sum of eigenvalues            :        -180.45433901 Ha       -4910.41240358 eV
  | XC energy correction          :         -42.67016677 Ha       -1161.11431460 eV
  | XC potential correction       :          54.85971122 Ha        1492.80869548 eV
  | Free-atom electrostatic energy:        -146.85409987 Ha       -3996.10337710 eV
  | Hartree energy correction     :          -8.35524913 Ha        -227.35789666 eV
  | vdW energy correction         :           0.00000000 Ha           0.00000000 eV
  | Entropy correction            :           0.00000000 Ha           0.00000000 eV
  | ---------------------------
  | Total energy                  :        -323.47414357 Ha       -8802.17929645 eV
  | Total energy, T -> 0          :        -323.47414357 Ha       -8802.17929645 eV  <-- do not rely on this value for anything but (periodic) metals
  | Electronic free energy        :        -323.47414357 Ha       -8802.17929645 eV

  Derived energy quantities:
  | Kinetic energy                :         322.83876610 Ha        8784.88979577 eV
  | Electrostatic energy          :        -603.64274290 Ha      -16425.95477762 eV
  | Energy correction for multipole
  | error in Hartree potential    :           0.04138995 Ha           1.12627795 eV
  | Sum of eigenvalues per atom                           :        -377.72403104 eV
  | Total energy (T->0) per atom                          :        -677.09071511 eV  <-- do not rely on this value for anything but (periodic) metals
  | Electronic free energy per atom                       :        -677.09071511 eV

  Self-consistency convergence accuracy:
  | Change of charge density      :  0.7031E-01
  | Change of sum of eigenvalues  :  0.3727E+01 eV
  | Change of total energy        :  0.3083E-01 eV

  End self-consistency iteration #     4       :  max(cpu_time)    wall_clock(cpu1)
  | Time for this iteration                    :        1.184 s           1.186 s
  | Charge density update                      :        0.388 s           0.388 s
  | Density mixing                             :        0.010 s           0.009 s
  | Hartree multipole update                   :        0.009 s           0.009 s
  | Hartree multipole summation                :        0.282 s           0.282 s
  | Integration                                :        0.494 s           0.494 s
  | Solution of K.-S. eqns.                    :        0.002 s           0.002 s
  | Total energy evaluation                    :        0.000 s           0.001 s

  Partial memory accounting:
  | Current value for overall tracked memory usage on task 0  :           0.166 MB
  | Peak value for overall tracked memory usage on task 0     :           0.691 MB after allocating gradient_basis_wave
  | Largest tracked array allocation on task 0 so far         :           0.394 MB  when allocating gradient_basis_wave
  Note:  These values currently only include a subset of arrays which are explicitly tracked.
  The "true" memory usage will be greater.
------------------------------------------------------------

------------------------------------------------------------
          Begin self-consistency iteration #    5

  Date     :  20200710, Time     :  151034.830
------------------------------------------------------------
  Evaluating new KS density.
  Integration grid: deviation in total charge (<rho> - N_e) =   4.263256E-14
  Pulay mixing of updated and previous charge densities.

  Evaluating partitioned Hartree potential by multipole expansion.
  | Analytical far-field extrapolation by fixed multipoles:
  | Hartree multipole sum: apparent total charge =  -0.487738E-03
  Summing up the Hartree potential.
  Time summed over all CPUs for potential: real work        0.281 s, elapsed        0.281 s
  | RMS charge density error from multipole expansion :   0.251681E-01

  Integrating Hamiltonian matrix: batch-based integration.
  Time summed over all CPUs for integration: real work        0.494 s, elapsed        0.494 s

  Updating Kohn-Sham eigenvalues and eigenvectors using ELSI and the ELPA eigensolver.
  Finished Cholesky decomposition
  | Time :     0.000 s
  Finished transformation to standard eigenproblem
  | Time :     0.000 s
  Starting LAPACK eigensolver
  Finished solving standard eigenproblem
  | Time :     0.001 s
  Finished back-transformation of eigenvectors
  | Time :     0.000 s

  Obtaining occupation numbers and chemical potential using ELSI.
  | Chemical potential (Fermi level):    -2.51548375eV
  Highest occupied state (VBM) at     -5.61005849 eV
  | Occupation number:      2.00000000

  Lowest unoccupied state (CBM) at    -1.62816618 eV
  | Occupation number:      0.00000000

  Overall HOMO-LUMO gap:      3.98189231 eV.

  Total energy components:
  | Sum of eigenvalues            :        -180.65868805 Ha       -4915.97302391 eV
  | XC energy correction          :         -42.64491452 Ha       -1160.42716589 eV
  | XC potential correction       :          54.82694494 Ha        1491.91707981 eV
  | Free-atom electrostatic energy:        -146.85409987 Ha       -3996.10337710 eV
  | Hartree energy correction     :          -8.14309837 Ha        -221.58498069 eV
  | vdW energy correction         :           0.00000000 Ha           0.00000000 eV
  | Entropy correction            :           0.00000000 Ha           0.00000000 eV
  | ---------------------------
  | Total energy                  :        -323.47385587 Ha       -8802.17146778 eV
  | Total energy, T -> 0          :        -323.47385587 Ha       -8802.17146778 eV  <-- do not rely on this value for anything but (periodic) metals
  | Electronic free energy        :        -323.47385587 Ha       -8802.17146778 eV

  Derived energy quantities:
  | Kinetic energy                :         322.71666894 Ha        8781.56736296 eV
  | Electrostatic energy          :        -603.54561029 Ha      -16423.31166486 eV
  | Energy correction for multipole
  | error in Hartree potential    :           0.04074389 Ha           1.10869777 eV
  | Sum of eigenvalues per atom                           :        -378.15177107 eV
  | Total energy (T->0) per atom                          :        -677.09011291 eV  <-- do not rely on this value for anything but (periodic) metals
  | Electronic free energy per atom                       :        -677.09011291 eV

  Self-consistency convergence accuracy:
  | Change of charge density      :  0.2070E-01
  | Change of sum of eigenvalues  : -0.5561E+01 eV
  | Change of total energy        :  0.7829E-02 eV

  End self-consistency iteration #     5       :  max(cpu_time)    wall_clock(cpu1)
  | Time for this iteration                    :        1.185 s           1.186 s
  | Charge density update                      :        0.387 s           0.388 s
  | Density mixing                             :        0.011 s           0.011 s
  | Hartree multipole update                   :        0.009 s           0.009 s
  | Hartree multipole summation                :        0.281 s           0.281 s
  | Integration                                :        0.494 s           0.494 s
  | Solution of K.-S. eqns.                    :        0.002 s           0.003 s
  | Total energy evaluation                    :        0.000 s           0.000 s

  Partial memory accounting:
  | Current value for overall tracked memory usage on task 0  :           0.166 MB
  | Peak value for overall tracked memory usage on task 0     :           0.691 MB after allocating gradient_basis_wave
  | Largest tracked array allocation on task 0 so far         :           0.394 MB  when allocating gradient_basis_wave
  Note:  These values currently only include a subset of arrays which are explicitly tracked.
  The "true" memory usage will be greater.
------------------------------------------------------------

------------------------------------------------------------
          Begin self-consistency iteration #    6

  Date     :  20200710, Time     :  151036.017
------------------------------------------------------------
  Evaluating new KS density.
  Integration grid: deviation in total charge (<rho> - N_e) =  -4.973799E-14
  Pulay mixing of updated and previous charge densities.

  Evaluating partitioned Hartree potential by multipole expansion.
  | Analytical far-field extrapolation by fixed multipoles:
  | Hartree multipole sum: apparent total charge =  -0.492129E-03
  Summing up the Hartree potential.
  Time summed over all CPUs for potential: real work        0.282 s, elapsed        0.282 s
  | RMS charge density error from multipole expansion :   0.256314E-01

  Integrating Hamiltonian matrix: batch-based integration.
  Time summed over all CPUs for integration: real work        0.494 s, elapsed        0.494 s

  Updating Kohn-Sham eigenvalues and eigenvectors using ELSI and the ELPA eigensolver.
  Finished Cholesky decomposition
  | Time :     0.000 s
  Finished transformation to standard eigenproblem
  | Time :     0.000 s
  Starting LAPACK eigensolver
  Finished solving standard eigenproblem
  | Time :     0.002 s
  Finished back-transformation of eigenvectors
  | Time :     0.000 s

  Obtaining occupation numbers and chemical potential using ELSI.
  | Chemical potential (Fermi level):    -2.50818317eV
  Highest occupied state (VBM) at     -5.57105942 eV
  | Occupation number:      2.00000000

  Lowest unoccupied state (CBM) at    -1.63619724 eV
  | Occupation number:      0.00000000

  Overall HOMO-LUMO gap:      3.93486218 eV.

  Total energy components:
  | Sum of eigenvalues            :        -180.64021706 Ha       -4915.47040262 eV
  | XC energy correction          :         -42.64676568 Ha       -1160.47753856 eV
  | XC potential correction       :          54.82931833 Ha        1491.98166297 eV
  | Free-atom electrostatic energy:        -146.85409987 Ha       -3996.10337710 eV
  | Hartree energy correction     :          -8.16204697 Ha        -222.10059839 eV
  | vdW energy correction         :           0.00000000 Ha           0.00000000 eV
  | Entropy correction            :           0.00000000 Ha           0.00000000 eV
  | ---------------------------
  | Total energy                  :        -323.47381125 Ha       -8802.17025369 eV
  | Total energy, T -> 0          :        -323.47381125 Ha       -8802.17025369 eV  <-- do not rely on this value for anything but (periodic) metals
  | Electronic free energy        :        -323.47381125 Ha       -8802.17025369 eV

  Derived energy quantities:
  | Kinetic energy                :         322.64838937 Ha        8779.70938159 eV
  | Electrostatic energy          :        -603.47543495 Ha      -16421.40209672 eV
  | Energy correction for multipole
  | error in Hartree potential    :           0.04119175 Ha           1.12088454 eV
  | Sum of eigenvalues per atom                           :        -378.11310789 eV
  | Total energy (T->0) per atom                          :        -677.09001951 eV  <-- do not rely on this value for anything but (periodic) metals
  | Electronic free energy per atom                       :        -677.09001951 eV

  Self-consistency convergence accuracy:
  | Change of charge density      :  0.1084E-01
  | Change of sum of eigenvalues  :  0.5026E+00 eV
  | Change of total energy        :  0.1214E-02 eV

  End self-consistency iteration #     6       :  max(cpu_time)    wall_clock(cpu1)
  | Time for this iteration                    :        1.187 s           1.188 s
  | Charge density update                      :        0.388 s           0.388 s
  | Density mixing                             :        0.012 s           0.012 s
  | Hartree multipole update                   :        0.009 s           0.009 s
  | Hartree multipole summation                :        0.282 s           0.282 s
  | Integration                                :        0.494 s           0.494 s
  | Solution of K.-S. eqns.                    :        0.002 s           0.002 s
  | Total energy evaluation                    :        0.000 s           0.001 s

  Partial memory accounting:
  | Current value for overall tracked memory usage on task 0  :           0.166 MB
  | Peak value for overall tracked memory usage on task 0     :           0.691 MB after allocating gradient_basis_wave
  | Largest tracked array allocation on task 0 so far         :           0.394 MB  when allocating gradient_basis_wave
  Note:  These values currently only include a subset of arrays which are explicitly tracked.
  The "true" memory usage will be greater.
------------------------------------------------------------

------------------------------------------------------------
          Begin self-consistency iteration #    7

  Date     :  20200710, Time     :  151037.205
------------------------------------------------------------
  Evaluating new KS density.
  Integration grid: deviation in total charge (<rho> - N_e) =  -3.552714E-14
  Pulay mixing of updated and previous charge densities.

  Evaluating partitioned Hartree potential by multipole expansion.
  | Analytical far-field extrapolation by fixed multipoles:
  | Hartree multipole sum: apparent total charge =  -0.492751E-03
  Summing up the Hartree potential.
  Time summed over all CPUs for potential: real work        0.282 s, elapsed        0.282 s
  | RMS charge density error from multipole expansion :   0.257194E-01

  Integrating Hamiltonian matrix: batch-based integration.
  Time summed over all CPUs for integration: real work        0.494 s, elapsed        0.494 s

  Updating Kohn-Sham eigenvalues and eigenvectors using ELSI and the ELPA eigensolver.
  Finished Cholesky decomposition
  | Time :     0.000 s
  Finished transformation to standard eigenproblem
  | Time :     0.000 s
  Starting LAPACK eigensolver
  Finished solving standard eigenproblem
  | Time :     0.001 s
  Finished back-transformation of eigenvectors
  | Time :     0.000 s

[...]
  |   Hirshfeld dipole moment :      0.05634622
  |   Hirshfeld second moments:      0.01487118      -0.03204123      -0.01945170
  |                                 -0.03204123      -0.02171689       0.00908740
  |                                 -0.01945170       0.00908740      -0.01460717
  ----------------------------------------------------------------------
  | Atom    12: O
  |   Hirshfeld charge        :     -0.16071349
  |   Free atom volume        :     23.61338643
  |   Hirshfeld volume        :     20.89252664
  |   Hirshfeld dipole vector :      0.00427292       0.04347024       0.00906231
  |   Hirshfeld dipole moment :      0.04460992
  |   Hirshfeld second moments:      0.11220509      -0.00971301       0.00285498
  |                                 -0.00971301       0.02945606       0.00969250
  |                                  0.00285498       0.00969250       0.03037062
  ----------------------------------------------------------------------
  | Atom    13: H
  |   Hirshfeld charge        :      0.18659828
  |   Free atom volume        :      9.95071624
  |   Hirshfeld volume        :      6.02135527
  |   Hirshfeld dipole vector :     -0.11890297       0.04797827       0.00859512
  |   Hirshfeld dipole moment :      0.12850567
  |   Hirshfeld second moments:      0.12591436       0.00283670       0.00036554
  |                                  0.00283670       0.11325328       0.00570702
  |                                  0.00036554       0.00570702       0.11865758
  ----------------------------------------------------------------------


  Total energy components:
  | Sum of eigenvalues            :        -180.64123940 Ha       -4915.49822180 eV
  | XC energy correction          :         -42.64332510 Ha       -1160.38391558 eV
  | XC potential correction       :          54.82495093 Ha        1491.86281997 eV
  | Free-atom electrostatic energy:        -146.85409987 Ha       -3996.10337710 eV
  | Hartree energy correction     :          -8.16007227 Ha        -222.04686395 eV
  | vdW energy correction         :          -0.00334407 Ha          -0.09099689 eV
  | Entropy correction            :           0.00000000 Ha           0.00000000 eV
  | ---------------------------
  | Total energy                  :        -323.47712978 Ha       -8802.26055534 eV
  | Total energy, T -> 0          :        -323.47712978 Ha       -8802.26055534 eV  <-- do not rely on this value for anything but (periodic) metals
  | Electronic free energy        :        -323.47712978 Ha       -8802.26055534 eV

  Derived energy quantities:
  | Kinetic energy                :         322.61207115 Ha        8778.72111240 eV
  | Electrostatic energy          :        -603.44253176 Ha      -16420.50675527 eV
  | Energy correction for multipole
  | error in Hartree potential    :           0.04121162 Ha           1.12142510 eV
  | Sum of eigenvalues per atom                           :        -378.11524783 eV
  | Total energy (T->0) per atom                          :        -677.09696580 eV  <-- do not rely on this value for anything but (periodic) metals
  | Electronic free energy per atom                       :        -677.09696580 eV

  atomic forces [eV/Ang]:
  -----------------------
  atom #    1
   Hellmann-Feynman              :  0.293668E+00 -0.137122E+00  0.856398E+00
   Ionic forces                  :  0.000000E+00  0.000000E+00  0.000000E+00
   Multipole                     :  0.175205E-01  0.145538E+00 -0.210627E+00
   Pulay + GGA                   : -0.806859E+00  0.129625E+00 -0.129634E+01
   Van der Waals                 :  0.540533E-02  0.402695E-02 -0.171718E-02
   ----------------------------------------------------------------
   Total forces(   1)            : -0.490265E+00  0.142068E+00 -0.652288E+00
  atom #    2
   Hellmann-Feynman              :  0.235862E+00  0.451543E-01 -0.653062E-01
   Ionic forces                  :  0.000000E+00  0.000000E+00  0.000000E+00
   Multipole                     :  0.190970E+00  0.159880E-01  0.128130E-01
   Pulay + GGA                   : -0.145131E+00  0.211743E-01  0.412838E-01
   Van der Waals                 :  0.336526E-02 -0.448690E-02 -0.650059E-02
   ----------------------------------------------------------------
   Total forces(   2)            :  0.285067E+00  0.778297E-01 -0.177100E-01
  atom #    3
   Hellmann-Feynman              : -0.185645E+01  0.110499E+02 -0.190161E+01
   Ionic forces                  :  0.000000E+00  0.000000E+00  0.000000E+00
   Multipole                     : -0.274718E+00  0.271255E+00 -0.100043E+01
   Pulay + GGA                   :  0.271577E+01 -0.106067E+02  0.349822E+01
   Van der Waals                 :  0.723407E-02 -0.106602E-02 -0.121634E-01
   ----------------------------------------------------------------
   Total forces(   3)            :  0.591834E+00  0.713363E+00  0.584013E+00
  atom #    4
   Hellmann-Feynman              : -0.193869E+00 -0.351113E+00 -0.116433E+00
   Ionic forces                  :  0.000000E+00  0.000000E+00  0.000000E+00
   Multipole                     :  0.353643E-01 -0.463924E-01 -0.105614E+00
   Pulay + GGA                   : -0.149854E+00  0.157118E+00  0.101003E+00
   Van der Waals                 : -0.310344E-02  0.300864E-02  0.122275E-02
   ----------------------------------------------------------------
   Total forces(   4)            : -0.311462E+00 -0.237380E+00 -0.119822E+00
  atom #    5
   Hellmann-Feynman              :  0.488497E-01 -0.229064E+00 -0.287787E+00
   Ionic forces                  :  0.000000E+00  0.000000E+00  0.000000E+00
   Multipole                     : -0.736649E-01 -0.607487E-01 -0.665934E-01
   Pulay + GGA                   :  0.202839E+00  0.159453E+00 -0.339561E-01
   Van der Waals                 :  0.146849E-03  0.162684E-02 -0.241410E-02
   ----------------------------------------------------------------
   Total forces(   5)            :  0.178170E+00 -0.128733E+00 -0.390751E+00
  atom #    6
   Hellmann-Feynman              :  0.346805E+00 -0.400068E+00  0.507810E+00
   Ionic forces                  :  0.000000E+00  0.000000E+00  0.000000E+00
   Multipole                     : -0.120514E+00  0.629328E+00  0.232450E+00
   Pulay + GGA                   : -0.718921E-02 -0.559945E+00 -0.565242E+00
   Van der Waals                 : -0.244007E-02  0.515682E-02 -0.275422E-02
   ----------------------------------------------------------------
   Total forces(   6)            :  0.216662E+00 -0.325528E+00  0.172264E+00
  atom #    7
   Hellmann-Feynman              : -0.246871E+00 -0.399952E-01 -0.429312E-01
   Ionic forces                  :  0.000000E+00  0.000000E+00  0.000000E+00
   Multipole                     : -0.116600E+00  0.507028E-01  0.239690E-01
   Pulay + GGA                   :  0.114621E+00  0.467902E-01  0.751470E-03
   Van der Waals                 : -0.219024E-02 -0.115140E-02  0.260026E-02
   ----------------------------------------------------------------
   Total forces(   7)            : -0.251039E+00  0.563465E-01 -0.156105E-01
  atom #    8
   Hellmann-Feynman              :  0.354912E-01 -0.573461E-01  0.179526E+00
   Ionic forces                  :  0.000000E+00  0.000000E+00  0.000000E+00
   Multipole                     :  0.177995E-01  0.666913E-01  0.123482E+00
   Pulay + GGA                   : -0.370466E-01 -0.358090E-01 -0.875556E-01
   Van der Waals                 : -0.300104E-02  0.111406E-01  0.146851E-02
   ----------------------------------------------------------------
   Total forces(   8)            :  0.132430E-01 -0.153231E-01  0.216921E+00
  atom #    9
   Hellmann-Feynman              :  0.638786E-01  0.964187E-02 -0.182835E+00
   Ionic forces                  :  0.000000E+00  0.000000E+00  0.000000E+00
   Multipole                     :  0.173415E-01  0.131821E+00 -0.116442E-01
   Pulay + GGA                   : -0.569963E-01 -0.110839E+00  0.206685E-01
   Van der Waals                 : -0.245678E-02  0.219931E-02  0.346067E-02
   ----------------------------------------------------------------
   Total forces(   9)            :  0.217669E-01  0.328228E-01 -0.170351E+00
  atom #   10
   Hellmann-Feynman              :  0.360536E+01  0.561395E+01  0.244112E+01
   Ionic forces                  :  0.000000E+00  0.000000E+00  0.000000E+00
   Multipole                     :  0.864435E-01 -0.216707E-01  0.234378E+00
   Pulay + GGA                   : -0.119659E+01 -0.361396E+01 -0.484209E+00
   Van der Waals                 :  0.243354E-02 -0.149892E-01  0.667259E-02
   ----------------------------------------------------------------
   Total forces(  10)            :  0.249765E+01  0.196333E+01  0.219796E+01
  atom #   11
   Hellmann-Feynman              :  0.379099E+01 -0.224048E+01  0.138160E+02
   Ionic forces                  :  0.000000E+00  0.000000E+00  0.000000E+00
   Multipole                     :  0.113148E+00 -0.608755E+00  0.730884E+00
   Pulay + GGA                   : -0.303040E+01  0.341325E+01 -0.136295E+02
   Van der Waals                 : -0.616623E-03 -0.118311E-01  0.357065E-02
   ----------------------------------------------------------------
   Total forces(  11)            :  0.873124E+00  0.552176E+00  0.920935E+00
  atom #   12
   Hellmann-Feynman              :  0.130703E+01 -0.134277E+02 -0.805904E+01
   Ionic forces                  :  0.000000E+00  0.000000E+00  0.000000E+00
   Multipole                     : -0.666282E+00 -0.146913E+01 -0.352386E+00
   Pulay + GGA                   : -0.334399E+01  0.127264E+02  0.628094E+01
   Van der Waals                 :  0.143037E-02  0.589868E-02  0.389500E-02
   ----------------------------------------------------------------
   Total forces(  12)            : -0.270181E+01 -0.216444E+01 -0.212659E+01
  atom #   13
   Hellmann-Feynman              : -0.121621E+01 -0.415537E+00 -0.637056E+00
   Ionic forces                  :  0.000000E+00  0.000000E+00  0.000000E+00
   Multipole                     : -0.595154E-01  0.153827E-01  0.219032E-01
   Pulay + GGA                   :  0.354202E+00 -0.267027E+00  0.959643E-02
   Van der Waals                 : -0.620721E-02  0.466852E-03  0.265905E-02
   ----------------------------------------------------------------
   Total forces(  13)            : -0.927733E+00 -0.666714E+00 -0.602898E+00

  Timings for VdW correction (Tkatchenko-Scheffler 2009 or later):
  | CPU time:        0.089 s, Wall clock time:        0.090 s.
  Removing unitary transformations (pure translations, rotations) from forces on atoms.
  Atomic forces before filtering:
  | Net force on center of mass :  -0.479021E-02 -0.183102E-03 -0.392837E-02 eV/A
  | Net torque on center of mass:  -0.394508E-02  0.237739E-02 -0.135962E-01 eV
  Atomic forces after filtering:
  | Net force on center of mass :   0.535218E-15 -0.267609E-15  0.178406E-15 eV/A
  | Net torque on center of mass:  -0.525147E-15  0.188817E-15 -0.113290E-14 eV

  Energy and forces in a compact form:
  | Total energy uncorrected      :         -0.880226055533739E+04 eV
  | Total energy corrected        :         -0.880226055533739E+04 eV  <-- do not rely on this value for anything but (periodic) metals
  | Electronic free energy        :         -0.880226055533739E+04 eV
  Total atomic forces (unitary forces cleaned) [eV/Ang]:
  |   1         -0.489950117025235E+00          0.142316959053815E+00         -0.651950231637118E+00
  |   2          0.285381484868684E+00          0.785777461753741E-01         -0.173225716576825E-01
  |   3          0.592213589817621E+00          0.713536311999285E+00          0.584328217381973E+00
  |   4         -0.310883646690498E+00         -0.236808749809010E+00         -0.119510447424713E+00
  |   5          0.178817961826109E+00         -0.128934069992663E+00         -0.390532431297326E+00
  |   6          0.216367363057552E+00         -0.325580053751173E+00          0.172707142485750E+00
  |   7         -0.251347555806049E+00          0.557941681109777E-01         -0.152143200256863E-01
  |   8          0.128954359635277E-01         -0.153144938314488E-01          0.217382183574732E+00
  |   9          0.210843313663769E-01          0.329875267586303E-01         -0.169799455859381E+00
  |  10          0.249851926214084E+01          0.196331809835916E+01          0.219814851144836E+01
  |  11          0.874067640904396E+00          0.552186892061379E+00          0.921109296151955E+00
  |  12         -0.270052063879144E+01         -0.216469801783401E+01         -0.212652231327241E+01
  |  13         -0.926645111631887E+00         -0.667382317300315E+00         -0.602823579868456E+00

  ------------------------------------ 
  Start decomposition of the XC Energy 
  ------------------------------------ 
  X and C from original XC functional choice 
  Hartree-Fock Energy :          0.000000000 Ha              0.000000000 eV
  X Energy            :        -41.042140681 Ha          -1116.813470765 eV
  C Energy            :         -1.601184416 Ha            -43.570444810 eV
  Total XC Energy     :        -42.643325097 Ha          -1160.383915575 eV
  ------------------------------------ 
  LDA X and C from self-consistent density 
  X Energy LDA        :        -37.261324618 Ha          -1013.932231148 eV
  C Energy LDA        :         -3.138930489 Ha            -85.414644447 eV
  ------------------------------------ 
  End decomposition of the XC Energy 
  ------------------------------------ 

------------------------------------------------------------

------------------------------------------------------------------------------
  Final output of selected total energy values:

  The following output summarizes some interesting total energy values
  at the end of a run (AFTER all relaxation, molecular dynamics, etc.).

  | Total energy of the DFT / Hartree-Fock s.c.f. calculation      :          -8802.260555337 eV
  | Final zero-broadening corrected energy (caution - metals only) :          -8802.260555337 eV
  | For reference only, the value of 1 Hartree used in FHI-aims is :             27.211384500 eV

  Before relying on these values, please be sure to understand exactly which
  total energy value is referred to by a given number. Different objects may
  all carry the same name 'total energy'. Definitions:

  Total energy of the DFT / Hartree-Fock s.c.f. calculation:
  | Note that this energy does not include ANY quantities calculated after the
  | s.c.f. cycle, in particular not ANY RPA, MP2, etc. many-body perturbation terms.

  Final zero-broadening corrected energy:
  | For metallic systems only, a broadening of the occupation numbers at the Fermi
  | level can be extrapolated back to zero broadening by an electron-gas inspired
  | formula. For all systems that are not real metals, this value can be
  | meaningless and should be avoided.

------------------------------------------------------------------------------
  Methods described in the following list of references were used in this FHI-aims run.
  If you publish the results, please make sure to cite these reference if they apply.
  FHI-aims is an academic code, and for our developers (often, Ph.D. students
  and postdocs), scientific credit in the community is essential.
  Thank you for helping us!

  For any use of FHI-aims, please cite:

    Volker Blum, Ralf Gehrke, Felix Hanke, Paula Havu, Ville Havu,
    Xinguo Ren, Karsten Reuter, and Matthias Scheffler
    'Ab initio molecular simulations with numeric atom-centered orbitals'
    Computer Physics Communications 180, 2175-2196 (2009)
    http://dx.doi.org/10.1016/j.cpc.2009.06.022


  The scalable eigensolver library ELPA was used in your run.
  ELPA is essential especially for large systems on hundreds or thousands of CPUs.
  For ELPA, please cite:

    Andreas Marek, Volker Blum, Rainer Johanni, Ville Havu, Bruno Lang,
    Thomas Auckenthaler, Alexander Heinecke, Hans-Joachim Bungartz, and Hermann Lederer,
    'The ELPA Library - Scalable Parallel Eigenvalue Solutions
    for Electronic Structure Theory and Computational Science'
    The Journal of Physics: Condensed Matter 26, 213201 (2014).
    http://dx.doi.org/10.1088/0953-8984/26/21/213201


  The ELSI infrastructure was used in your run to solve the Kohn-Sham electronic structure.
  Please check out http://elsi-interchange.org to learn more.
  If scalability is important for your project, please acknowledge ELSI by citing:

    V. W-z. Yu, F. Corsetti, A. Garcia, W. P. Huhn, M. Jacquelin, W. Jia,
    B. Lange, L. Lin, J. Lu, W. Mi, A. Seifitokaldani, A. Vazquez-Mayagoitia,
    C. Yang, H. Yang, and V. Blum
    'ELSI: A unified software interface for Kohn-Sham electronic structure solvers'
    Computer Physics Communications 222, 267-285 (2018).
    http://dx.doi.org/10.1016/j.cpc.2017.09.007


  For the real-space grid partitioning and parallelization used in this calculation, please cite:

    Ville Havu, Volker Blum, Paula Havu, and Matthias Scheffler,
    'Efficient O(N) integration for all-electron electronic structure calculation'
    'using numerically tabulated basis functions'
    Journal of Computational Physics 228, 8367-8379 (2009).
    http://dx.doi.org/10.1016/j.jcp.2009.08.008

  Of course, there are many other important community references, e.g., those cited in the
  above references. Our list is limited to references that describe implementations in the
  FHI-aims code. The reason is purely practical (length of this list) - please credit others as well.

------------------------------------------------------------
          Leaving FHI-aims.
          Date     :  20200710, Time     :  151051.457

          Computational steps:
          | Number of self-consistency cycles          :           16
          | Number of SCF (re)initializations          :            1

          Detailed time accounting                     :  max(cpu_time)    wall_clock(cpu1)
          | Total time                                 :       22.639 s          22.690 s
          | Preparation time                           :        0.147 s           0.148 s
          | Boundary condition initalization           :        0.000 s           0.000 s
          | Grid partitioning                          :        0.111 s           0.112 s
          | Preloading free-atom quantities on grid    :        0.002 s           0.003 s
          | Free-atom superposition energy             :        0.085 s           0.085 s
          | Total time for integrations                :        8.611 s           8.619 s
          | Total time for solution of K.-S. equations :        0.036 s           0.038 s
          | Total time for density & force components  :        7.149 s           7.154 s
          | Total time for mixing                      :        0.214 s           0.216 s
          | Total time for Hartree multipole update    :        0.140 s           0.144 s
          | Total time for Hartree multipole sum       :        5.742 s           5.759 s
          | Total time for total energy evaluation     :        0.003 s           0.004 s
          | Total time for vdW correction              :        0.089 s           0.090 s

          Partial memory accounting:
          | Residual value for overall tracked memory usage across tasks :           0.000 MB (should be 0.000 MB)
          | Peak values for overall tracked memory usage (after allocating hessian_basis_wave):
          |   Minimum:        1.611 MB (on task 1)
          |   Maximum:        1.611 MB (on task 1)
          |   Average:        1.611 MB
          | Largest tracked array allocation (hessian_basis_wave):
          |   Minimum:        0.787 MB (on task 1)
          |   Maximum:        0.787 MB (on task 1)
          |   Average:        0.787 MB
          Note:  These values currently only include a subset of arrays which are explicitly tracked.
          The "true" memory usage will be greater.

          Have a nice day.
------------------------------------------------------------
