  MPI-parallelism will be employed.
------------------------------------------------------------
          Invoking FHI-aims ...
          Version 171221_1
          Compiled on 2019/09/09 at 14:39:39 on host puhti-login2.bullx.

          When using FHI-aims, please cite the following reference:

          Volker Blum, Ralf Gehrke, Felix Hanke, Paula Havu,
          Ville Havu, Xinguo Ren, Karsten Reuter, and Matthias Scheffler,
          'Ab Initio Molecular Simulations with Numeric Atom-Centered Orbitals',
          Computer Physics Communications 180, 2175-2196 (2009)

          For any questions about FHI-aims, please visit the aimsclub website
          with its forums and wiki. Contributions to both the forums and the
          wiki are warmly encouraged - they are for you, and everyone is welcome there.

------------------------------------------------------------



  Date     :  20200710, Time     :  144350.734
  Time zero on CPU 1             :   0.113500000000000E-01  s.
  Internal wall clock time zero  :           363624230.734  s.

  FHI-aims created a unique identifier for this run for later identification
  aims_uuid : F3FFF503-B583-478E-A255-E9243789CBE2

  Using        1 parallel tasks.
  Task        0 on host r18c45.bullx reporting.

  Performing system and environment tests:
  | Environment variable OMP_NUM_THREADS correctly set to 1.
  | Stacksize not measured: no C compiler
  | Checking for scalapack...
  | Testing pdtran()...
  | All pdtran() tests passed.

  Obtaining array dimensions for all initial allocations:
  
  -----------------------------------------------------------------------
  Parsing control.in (first pass over file, find array dimensions only).
  The contents of control.in will be repeated verbatim below
  unless switched off by setting 'verbatim_writeout .false.' .
  in the first line of control.in .
  -----------------------------------------------------------------------
  
  #########################################################################################
  #
  #  Volker Blum, FHI 2009 : Test run input file control.in for simple H2O
  #
  #########################################################################################
  #
  #  Physical model
  #
    xc                 pbe
    vdw_correction_hirshfeld
    spin               none
    relativistic       none
    charge             0.
  #
  #  SCF convergence
  #
    occupation_type    gaussian 0.01
    mixer              pulay
      n_max_pulay        10
      charge_mix_param   0.2
    sc_accuracy_rho    1E-5
    sc_accuracy_eev    1E-3
    sc_accuracy_etot   1E-6
    sc_accuracy_forces 1E-4
    sc_iter_limit      100
  #
  #  Relaxation
  #
  #  relax_geometry   bfgs 1.e-3
  #
  ################################################################################
  #
  #  FHI-aims code project
  #  VB, Fritz-Haber Institut, 2009
  #
  #  Suggested "light" defaults for H atom (to be pasted into control.in file)
  #  Be sure to double-check any results obtained with these settings for post-processing,
  #  e.g., with the "tight" defaults and larger basis sets.
  #
  ################################################################################
    species        H
  #     global species definitions
      nucleus             1
      mass                1.00794
  #
      l_hartree           4
  #
      cut_pot             3.5  1.5  1.0
      basis_dep_cutoff    1e-4
  #
      radial_base         24 5.0
      radial_multiplier   1
      angular_grids       specified
        division   0.2421   50
        division   0.3822  110
        division   0.4799  194
        division   0.5341  302
  #      division   0.5626  434
  #      division   0.5922  590
  #      division   0.6542  770
  #      division   0.6868 1202
  #      outer_grid  770
        outer_grid  302
  ################################################################################
  #
  #  Definition of "minimal" basis
  #
  ################################################################################
  #     valence basis states
      valence      1  s   1.
  #     ion occupancy
      ion_occ      1  s   0.5
  ################################################################################
  #
  #  Suggested additional basis functions. For production calculations,
  #  uncomment them one after another (the most important basis functions are
  #  listed first).
  #
  #  Basis constructed for dimers: 0.5 A, 0.7 A, 1.0 A, 1.5 A, 2.5 A
  #
  ################################################################################
  #  "First tier" - improvements: -1014.90 meV to -62.69 meV
       hydro 2 s 2.1
       hydro 2 p 3.5
  #  "Second tier" - improvements: -12.89 meV to -1.83 meV
  #     hydro 1 s 0.85
  #     hydro 2 p 3.7
  #     hydro 2 s 1.2
  #     hydro 3 d 7
  #  "Third tier" - improvements: -0.25 meV to -0.12 meV
  #     hydro 4 f 11.2
  #     hydro 3 p 4.8
  #     hydro 4 d 9
  #     hydro 3 s 3.2
  ################################################################################
  #
  #  FHI-aims code project
  #  VB, Fritz-Haber Institut, 2009
  #
  #  Suggested "light" defaults for C atom (to be pasted into control.in file)
  #  Be sure to double-check any results obtained with these settings for post-processing,
  #  e.g., with the "tight" defaults and larger basis sets.
  #
  ################################################################################
    species        C
  #     global species definitions
      nucleus             6
      mass                12.0107
  #
      l_hartree           4
  #
      cut_pot             3.5  1.5  1.0
      basis_dep_cutoff    1e-4
  #
      radial_base         34 5.0
      radial_multiplier   1
      angular_grids specified
        division   0.3326   50
        division   0.5710  110
        division   0.7727  194
        division   0.8772  302
  #      division   0.9334  434
  #      division   0.9625  590
  #      division   0.9924  770
  #      division   1.0230  974
  #      division   1.4589 1202
  #     outer_grid  974
       outer_grid 302
  ################################################################################
  #
  #  Definition of "minimal" basis
  #
  ################################################################################
  #     valence basis states
      valence      2  s   2.
      valence      2  p   2.
  #     ion occupancy
      ion_occ      2  s   1.
      ion_occ      2  p   1.
  ################################################################################
  #
  #  Suggested additional basis functions. For production calculations,
  #  uncomment them one after another (the most important basis functions are
  #  listed first).
  #
  #  Constructed for dimers: 1.0 A, 1.25 A, 1.5 A, 2.0 A, 3.0 A
  #
  ################################################################################
  #  "First tier" - improvements: -1214.57 meV to -155.61 meV
       hydro 2 p 1.7
       hydro 3 d 6
       hydro 2 s 4.9
  #  "Second tier" - improvements: -67.75 meV to -5.23 meV
  #     hydro 4 f 9.8
  #     hydro 3 p 5.2
  #     hydro 3 s 4.3
  #     hydro 5 g 14.4
  #     hydro 3 d 6.2
  #  "Third tier" - improvements: -2.43 meV to -0.60 meV
  #     hydro 2 p 5.6
  #     hydro 2 s 1.4
  #     hydro 3 d 4.9
  #     hydro 4 f 11.2
  #  "Fourth tier" - improvements: -0.39 meV to -0.18 meV
  #     hydro 2 p 2.1
  #     hydro 5 g 16.4
  #     hydro 4 d 13.2
  #     hydro 3 s 13.6
  #     hydro 4 f 17.6
  #  Further basis functions - improvements: -0.08 meV and below
  #     hydro 3 s 2
  #     hydro 3 p 6
  #     hydro 4 d 20
  ################################################################################
  #
  #  FHI-aims code project
  #  VB, Fritz-Haber Institut, 2009
  #
  #  Suggested "light" defaults for N atom (to be pasted into control.in file)
  #  Be sure to double-check any results obtained with these settings for post-processing,
  #  e.g., with the "tight" defaults and larger basis sets.
  #
  ################################################################################
    species        N
  #     global species definitions
      nucleus             7
      mass                14.0067
  #
      l_hartree           4
  #
      cut_pot             3.5  1.5  1.0
      basis_dep_cutoff    1e-4
  #
      radial_base         35 5.0
      radial_multiplier   1
      angular_grids       specified
        division   0.2599   50
        division   0.4601  110
        division   0.5885  194
        division   0.6503  302
  #      division   0.6939  434
  #      division   0.7396  590
  #      division   0.7632  770
  #      division   0.8122  974
  #      division   1.1604 1202
  #      outer_grid  974
        outer_grid  302
  ################################################################################
  #
  #  Definition of "minimal" basis
  #
  ################################################################################
  #     valence basis states
      valence      2  s   2.
      valence      2  p   3.
  #     ion occupancy
      ion_occ      2  s   1.
      ion_occ      2  p   2.
  ################################################################################
  #
  #  Suggested additional basis functions. For production calculations,
  #  uncomment them one after another (the most important basis functions are
  #  listed first).
  #
  #  Constructed for dimers: 1.0 A, 1.1 A, 1.5 A, 2.0 A, 3.0 A
  #
  ################################################################################
  #  "First tier" - improvements: -1193.42 meV to -220.60 meV
       hydro 2 p 1.8
       hydro 3 d 6.8
       hydro 3 s 5.8
  #  "Second tier" - improvements: -80.21 meV to -6.86 meV
  #     hydro 4 f 10.8
  #     hydro 3 p 5.8
  #     hydro 1 s 0.8
  #     hydro 5 g 16
  #     hydro 3 d 4.9
  #  "Third tier" - improvements: -4.29 meV to -0.53 meV
  #     hydro 3 s 16
  #     ionic 2 p auto
  #     hydro 3 d 6.6
  #     hydro 4 f 11.6
  #  "Fourth tier" - improvements: -0.75 meV to -0.25 meV
  #     hydro 2 p 4.5
  #     hydro 2 s 2.4
  #     hydro 5 g 14.4
  #     hydro 4 d 14.4
  #     hydro 4 f 16.8
  # Further basis functions - -0.21 meV and below
  #     hydro 3 p 14.8
  #     hydro 3 s 4.4
  #     hydro 3 d 19.6
  #     hydro 5 g 12.8
  ################################################################################
  #
  #  FHI-aims code project
  #  VB, Fritz-Haber Institut, 2009
  #
  #  Suggested "light" defaults for O atom (to be pasted into control.in file)
  #  Be sure to double-check any results obtained with these settings for post-processing,
  #  e.g., with the "tight" defaults and larger basis sets.
  #
  ################################################################################
    species        O
  #     global species definitions
      nucleus             8
      mass                15.9994
  #
      l_hartree           4
  #
      cut_pot             3.5  1.5  1.0
      basis_dep_cutoff    1e-4
  #
      radial_base         36 5.0
      radial_multiplier   1
       angular_grids specified
        division   0.2659   50
        division   0.4451  110
        division   0.6052  194
        division   0.7543  302
  #      division   0.8014  434
  #      division   0.8507  590
  #      division   0.8762  770
  #      division   0.9023  974
  #      division   1.2339 1202
  #      outer_grid 974
        outer_grid 302
  ################################################################################
  #
  #  Definition of "minimal" basis
  #
  ################################################################################
  #     valence basis states
      valence      2  s   2.
      valence      2  p   4.
  #     ion occupancy
      ion_occ      2  s   1.
      ion_occ      2  p   3.
  ################################################################################
  #
  #  Suggested additional basis functions. For production calculations,
  #  uncomment them one after another (the most important basis functions are
  #  listed first).
  #
  #  Constructed for dimers: 1.0 A, 1.208 A, 1.5 A, 2.0 A, 3.0 A
  #
  ################################################################################
  #  "First tier" - improvements: -699.05 meV to -159.38 meV
       hydro 2 p 1.8
       hydro 3 d 7.6
       hydro 3 s 6.4
  #  "Second tier" - improvements: -49.91 meV to -5.39 meV
  #     hydro 4 f 11.6
  #     hydro 3 p 6.2
  #     hydro 3 d 5.6
  #     hydro 5 g 17.6
  #     hydro 1 s 0.75
  #  "Third tier" - improvements: -2.83 meV to -0.50 meV
  #     ionic 2 p auto
  #     hydro 4 f 10.8
  #     hydro 4 d 4.7
  #     hydro 2 s 6.8
  #  "Fourth tier" - improvements: -0.40 meV to -0.12 meV
  #     hydro 3 p 5
  #     hydro 3 s 3.3
  #     hydro 5 g 15.6
  #     hydro 4 f 17.6
  #     hydro 4 d 14
  # Further basis functions - -0.08 meV and below
  #     hydro 3 s 2.1
  #     hydro 4 d 11.6
  #     hydro 3 p 16
  #     hydro 2 s 17.2
  
  -----------------------------------------------------------------------
  Completed first pass over input file control.in .
  -----------------------------------------------------------------------
  
  
  -----------------------------------------------------------------------
  Parsing geometry.in (first pass over file, find array dimensions only).
  The contents of geometry.in will be repeated verbatim below
  unless switched off by setting 'verbatim_writeout .false.' .
  in the first line of geometry.in .
  -----------------------------------------------------------------------
  
  atom  0.00000 0.00000 0.00000 C
  atom  1.09300 0.00000 0.00000 H
  atom  -0.47961 0.00000 -1.41207 N
  atom  -1.45685 0.29437 -1.42559 H
  atom  0.09066 0.64847 -1.95096 H
  atom  -0.49584 1.26211 0.72868 C
  atom  -1.58789 1.28919 0.74431 H
  atom  -0.13407 1.27425 1.75947 H
  atom  -0.13407 2.16087 0.22380 H
  atom  -0.39425 -1.28861 0.74398 C
  atom  -0.10189 -1.56493 1.88303 O
  atom  -1.10210 -2.13717 0.06896 O
  atom  -0.38407 -2.72933 -0.21169 H
  
  -----------------------------------------------------------------------
  Completed first pass over input file geometry.in .
  -----------------------------------------------------------------------
  

  Basic array size parameters:
  | Number of species                 :        4
  | Number of atoms                   :       13
  | Max. basis fn. angular momentum   :        2
  | Max. atomic/ionic basis occupied n:        2
  | Max. number of basis fn. types    :        2
  | Max. radial fns per species/type  :        3
  | Max. logarithmic grid size        :     1301
  | Max. radial integration grid size :       36
  | Max. angular integration grid size:      302
  | Max. angular grid division number :        8
  | Radial grid for Hartree potential :     1301
  | Number of spin channels           :        1

------------------------------------------------------------
          Reading file control.in.
------------------------------------------------------------
  XC: Using PBE gradient-corrected functionals.
  Spin treatment: No spin polarisation.
  Non-relativistic treatment of kinetic energy.
  Charge =   0.000000E+00: Neutral system requested explicitly.
  Occupation type: Gaussian broadening, width =   0.100000E-01 eV.
  Using pulay charge density mixing.
  Pulay mixing - number of memorized iterations:   10
  Charge density mixing - mixing parameter:     0.2000
  Convergence accuracy of self-consistent charge density:  0.1000E-04
  Convergence accuracy of sum of eigenvalues:  0.1000E-02
  Convergence accuracy of total energy:  0.1000E-05
  Convergence accuracy of forces:  0.1000E-03
  Maximum number of s.-c. iterations  :   100
 
  Reading configuration options for species H                   .
  | Found nuclear charge :   1.0000
  | Found atomic mass :    1.00794000000000      amu
  | Found l_max for Hartree potential  :   4
  | Found cutoff potl. onset [A], width [A], scale factor :    3.50000    1.50000    1.00000
  | Threshold for basis-dependent cutoff potential is   0.100000E-03
  | Found data for basic radial integration grid :    24 points, outermost radius =    5.000 A
  | Found multiplier for basic radial grid :   1
  | Found angular grid specification: user-specified.
  | Specified grid contains     5 separate shells.
  | Check grid settings after all constraints further below.
  | Found free-atom valence shell :  1 s   1.000
  | No ionic wave fns used. Skipping ion_occ.
  | Found hydrogenic basis function :  2 s   2.100
  | Found hydrogenic basis function :  2 p   3.500
  Species H                   : Missing cutoff potential type.
  Defaulting to exp(1/x)/(1-x)^2 type cutoff potential.
  Species H : No 'logarithmic' tag. Using default grid for free atom:
  | Default logarithmic grid data [bohr] : 0.1000E-03 0.1000E+03 0.1012E+01
  Species H : On-site basis accuracy parameter (for Gram-Schmidt orthonormalisation) not specified.
  Using default value basis_acc =  0.1000000E-03.
  Species H                   : Using default innermost maximum threshold i_radial=  2 for radial functions.
  Species H                   : Default cutoff onset for free atom density etc. : 0.35000000E+01 AA.
  Species H                   : Basic radial grid will be enhanced according to radial_multiplier =   1, to contain    24 grid points.
 
  Reading configuration options for species C                   .
  | Found nuclear charge :   6.0000
  | Found atomic mass :    12.0107000000000      amu
  | Found l_max for Hartree potential  :   4
  | Found cutoff potl. onset [A], width [A], scale factor :    3.50000    1.50000    1.00000
  | Threshold for basis-dependent cutoff potential is   0.100000E-03
  | Found data for basic radial integration grid :    34 points, outermost radius =    5.000 A
  | Found multiplier for basic radial grid :   1
  | Found angular grid specification: user-specified.
  | Specified grid contains     5 separate shells.
  | Check grid settings after all constraints further below.
  | Found free-atom valence shell :  2 s   2.000
  | Found free-atom valence shell :  2 p   2.000
  | No ionic wave fns used. Skipping ion_occ.
  | No ionic wave fns used. Skipping ion_occ.
  | Found hydrogenic basis function :  2 p   1.700
  | Found hydrogenic basis function :  3 d   6.000
  | Found hydrogenic basis function :  2 s   4.900
  Species C                   : Missing cutoff potential type.
  Defaulting to exp(1/x)/(1-x)^2 type cutoff potential.
  Species C : No 'logarithmic' tag. Using default grid for free atom:
  | Default logarithmic grid data [bohr] : 0.1000E-03 0.1000E+03 0.1012E+01
  Species C : On-site basis accuracy parameter (for Gram-Schmidt orthonormalisation) not specified.
  Using default value basis_acc =  0.1000000E-03.
  Species C                   : Using default innermost maximum threshold i_radial=  2 for radial functions.
  Species C                   : Default cutoff onset for free atom density etc. : 0.35000000E+01 AA.
  Species C                   : Basic radial grid will be enhanced according to radial_multiplier =   1, to contain    34 grid points.
 
  Reading configuration options for species N                   .
  | Found nuclear charge :   7.0000
  | Found atomic mass :    14.0067000000000      amu
  | Found l_max for Hartree potential  :   4
  | Found cutoff potl. onset [A], width [A], scale factor :    3.50000    1.50000    1.00000
  | Threshold for basis-dependent cutoff potential is   0.100000E-03
  | Found data for basic radial integration grid :    35 points, outermost radius =    5.000 A
  | Found multiplier for basic radial grid :   1
  | Found angular grid specification: user-specified.
  | Specified grid contains     5 separate shells.
  | Check grid settings after all constraints further below.
  | Found free-atom valence shell :  2 s   2.000
  | Found free-atom valence shell :  2 p   3.000
  | No ionic wave fns used. Skipping ion_occ.
  | No ionic wave fns used. Skipping ion_occ.
  | Found hydrogenic basis function :  2 p   1.800
  | Found hydrogenic basis function :  3 d   6.800
  | Found hydrogenic basis function :  3 s   5.800
  Species N                   : Missing cutoff potential type.
  Defaulting to exp(1/x)/(1-x)^2 type cutoff potential.
  Species N : No 'logarithmic' tag. Using default grid for free atom:
  | Default logarithmic grid data [bohr] : 0.1000E-03 0.1000E+03 0.1012E+01
  Species N : On-site basis accuracy parameter (for Gram-Schmidt orthonormalisation) not specified.
  Using default value basis_acc =  0.1000000E-03.
  Species N                   : Using default innermost maximum threshold i_radial=  2 for radial functions.
  Species N                   : Default cutoff onset for free atom density etc. : 0.35000000E+01 AA.
  Species N                   : Basic radial grid will be enhanced according to radial_multiplier =   1, to contain    35 grid points.
 
  Reading configuration options for species O                   .
  | Found nuclear charge :   8.0000
  | Found atomic mass :    15.9994000000000      amu
  | Found l_max for Hartree potential  :   4
  | Found cutoff potl. onset [A], width [A], scale factor :    3.50000    1.50000    1.00000
  | Threshold for basis-dependent cutoff potential is   0.100000E-03
  | Found data for basic radial integration grid :    36 points, outermost radius =    5.000 A
  | Found multiplier for basic radial grid :   1
  | Found angular grid specification: user-specified.
  | Specified grid contains     5 separate shells.
  | Check grid settings after all constraints further below.
  | Found free-atom valence shell :  2 s   2.000
  | Found free-atom valence shell :  2 p   4.000
  | No ionic wave fns used. Skipping ion_occ.
  | No ionic wave fns used. Skipping ion_occ.
  | Found hydrogenic basis function :  2 p   1.800
  | Found hydrogenic basis function :  3 d   7.600
  | Found hydrogenic basis function :  3 s   6.400
  Species O                   : Missing cutoff potential type.
  Defaulting to exp(1/x)/(1-x)^2 type cutoff potential.
  Species O : No 'logarithmic' tag. Using default grid for free atom:
  | Default logarithmic grid data [bohr] : 0.1000E-03 0.1000E+03 0.1012E+01
  Species O : On-site basis accuracy parameter (for Gram-Schmidt orthonormalisation) not specified.
  Using default value basis_acc =  0.1000000E-03.
  Species O                   : Using default innermost maximum threshold i_radial=  2 for radial functions.
  Species O                   : Default cutoff onset for free atom density etc. : 0.35000000E+01 AA.
  Species O                   : Basic radial grid will be enhanced according to radial_multiplier =   1, to contain    36 grid points.
 
  Finished reading input file 'control.in'. Consistency checks are next.
 
  MPI_IN_PLACE appears to work with this MPI implementation.
  | Keeping use_mpi_in_place .true. (see manual).
  Target number of points in a grid batch is not set. Defaulting to  100
  Method for grid partitioning is not set. Defaulting to parallel hash+maxmin partitioning.
  Batch size limit is not set. Defaulting to    200
  By default, will store active basis functions for each batch.
  If in need of memory, prune_basis_once .false. can be used to disable this option.
  communication_type for Hartree potential was not specified.
  Defaulting to calc_hartree .
  Pulay mixer: Number of initial linear mixing iterations not set.
  Defaulting to    0 iterations.
  Work space size for distributed Hartree potential not set.
  Defaulting to   0.200000E+03 MB.
  Algorithm-dependent basis array size parameters:
  | n_max_pulay                         :       10
  Presetting      1001 iterations before the initial mixing cycle
  is restarted anyway using the sc_init_iter criterion / keyword.
  Presetting a factor      1.000 between actual scf density residual
  and density convergence criterion sc_accuracy_rho below which sc_init_iter
  takes no effect.
  Geometry relaxation not requested: no relaxation will be performed.
  Handling of forces: Unphysical translation and rotation will be removed from forces.
  No accuracy limit for integral partition fn. given. Defaulting to  0.1000E-14.
  No threshold value for u(r) in integrations given. Defaulting to  0.1000E-05.
  No accuracy for occupation numbers given. Defaulting to  0.1000E-12.
  No threshold value for occupation numbers given. Defaulting to  0.0000E+00.
  No accuracy for fermi level given. Defaulting to  0.1000E-19.
  Maximum # of iterations to find E_F not set. Defaulting to  200.
  Preferred method for the eigenvalue solver ('KS_method') not specified in 'control.in'.
  Defaulting to serial version, 'lapack_fast'.
  Will not use alltoall communication since running on < 1024 CPUs.
  Threshold for basis singularities not set.
  Default threshold for basis singularities:  0.1000E-04
  partition_type (choice of integration weights) for integrals was not specified.
  | Using a version of the partition function of Stratmann and coworkers ('stratmann_smoother').
  | At each grid point, the set of atoms used to build the partition table is smoothly restricted to
  | only those atoms whose free-atom density would be non-zero at that grid point.
  Partitioning for Hartree potential was not defined. Using partition_type for integrals.
  | Adjusted default value of keyword multip_moments_threshold to:       0.10000000E-11
  | This value may affect high angular momentum components of the Hartree potential in periodic systems.
  No q(lm)/r^(l+1) cutoff set for long-range Hartree potential.
  | Using default value of  0.100000E-09 .
  | Verify using the multipole_threshold keyword.
  Defaulting to new monopole extrapolation.
  Density update method: automatic selection selected.
------------------------------------------------------------


------------------------------------------------------------
          Reading geometry description geometry.in.
------------------------------------------------------------
  Input structure read successfully.
  The structure contains       13 atoms,  and a total of         48.000 electrons.

  Input geometry:
  | No unit cell requested.
  | Atomic structure:
  |       Atom                x [A]            y [A]            z [A]
  |    1: Species C             0.00000000        0.00000000        0.00000000
  |    2: Species H             1.09300000        0.00000000        0.00000000
  |    3: Species N            -0.47961000        0.00000000       -1.41207000
  |    4: Species H            -1.45685000        0.29437000       -1.42559000
  |    5: Species H             0.09066000        0.64847000       -1.95096000
  |    6: Species C            -0.49584000        1.26211000        0.72868000
  |    7: Species H            -1.58789000        1.28919000        0.74431000
  |    8: Species H            -0.13407000        1.27425000        1.75947000
  |    9: Species H            -0.13407000        2.16087000        0.22380000
  |   10: Species C            -0.39425000       -1.28861000        0.74398000
  |   11: Species O            -0.10189000       -1.56493000        1.88303000
  |   12: Species O            -1.10210000       -2.13717000        0.06896000
  |   13: Species H            -0.38407000       -2.72933000       -0.21169000
  |

  | The smallest distance between any two atoms is         0.97210337 AA.
  |
  | The first atom of this pair is atom number                     12 .
  | The second atom of this pair is atom number                    13 .

  Number of empty states per atom not set in control.in - providing a guess from actual geometry.
  | Total number of empty states used during s.c.f. cycle:       29
  If you use a very high smearing, use empty_states (per atom!) in control.in to increase this value.

  Structure-dependent array size parameters: 
  | Maximum number of distinct radial functions  :       21
  | Maximum number of basis functions            :      119
  | Number of Kohn-Sham states (occupied + empty):       53
------------------------------------------------------------

------------------------------------------------------------
          Preparing all fixed parts of the calculation.
------------------------------------------------------------
  Determining machine precision:
    2.225073858507201E-308
  Setting up grids for atomic and cluster calculations.

  Creating wave function, potential, and density for free atoms.

  Species: H

  List of occupied orbitals and eigenvalues:
    n    l              occ      energy [Ha]    energy [eV]
    1    0           1.0000        -0.237589        -6.4651


  Species: C

  List of occupied orbitals and eigenvalues:
    n    l              occ      energy [Ha]    energy [eV]
    1    0           2.0000       -10.038835      -273.1706
    2    0           2.0000        -0.502696       -13.6791
    2    1           2.0000        -0.191971        -5.2238


  Species: N

  List of occupied orbitals and eigenvalues:
    n    l              occ      energy [Ha]    energy [eV]
    1    0           2.0000       -14.128000      -384.4424
    2    0           2.0000        -0.681077       -18.5330
    2    1           3.0000        -0.259788        -7.0692


  Species: O

  List of occupied orbitals and eigenvalues:
    n    l              occ      energy [Ha]    energy [eV]
    1    0           2.0000       -18.898188      -514.2459
    2    0           2.0000        -0.878505       -23.9053
    2    1           4.0000        -0.331779        -9.0282

  Creating fixed part of basis set: Ionic, confined, hydrogenic.
 
  H                    hydrogenic:
 
  List of hydrogenic basis orbitals: 
    n    l      effective z      eigenvalue [eV]  inner max. [A]     outer max. [A]     outer radius [A]   
    2    0         2.100000       -14.9728           0.193243           1.317208           4.583499
    2    1         3.500000       -41.6669           0.602369           0.602369           3.723403
 
 
  C                    hydrogenic:
 
  List of hydrogenic basis orbitals: 
    n    l      effective z      eigenvalue [eV]  inner max. [A]     outer max. [A]     outer radius [A]   
    2    1         1.700000        -9.7616           1.230570           1.230570           4.607917
    3    2         6.000000       -54.4224           0.792453           0.792453           3.883070
    2    0         4.900000       -81.6679           0.082559           0.562749           3.078220
 
 
  N                    hydrogenic:
 
  List of hydrogenic basis orbitals: 
    n    l      effective z      eigenvalue [eV]  inner max. [A]     outer max. [A]     outer radius [A]   
    2    1         1.800000       -10.9749           1.177451           1.177451           4.573712
    3    2         6.800000       -69.9026           0.704619           0.704619           3.538137
    3    0         5.800000       -50.8545           0.067388           1.191934           4.250239
 
 
  O                    hydrogenic:
 
  List of hydrogenic basis orbitals: 
    n    l      effective z      eigenvalue [eV]  inner max. [A]     outer max. [A]     outer radius [A]   
    2    1         1.800000       -10.9749           1.164242           1.164242           4.578029
    3    2         7.600000       -87.3180           0.624125           0.624125           3.251020
    3    0         6.400000       -61.9207           0.061167           1.081902           4.001998
 

  Adding cutoff potential to free-atom effective potential.
  Creating atomic-like basis functions for current effective potential.

  Species H                   :

  List of atomic basis orbitals and eigenvalues:
    n    l      energy [Ha]    energy [eV]    outer radius [A]
    1    0        -0.237589        -6.4651       4.527807


  Species C                   :

  List of atomic basis orbitals and eigenvalues:
    n    l      energy [Ha]    energy [eV]    outer radius [A]
    1    0       -10.038835      -273.1706       1.934409
    2    0        -0.502696       -13.6791       4.496620
    2    1        -0.191971        -5.2238       4.551928


  Species N                   :

  List of atomic basis orbitals and eigenvalues:
    n    l      energy [Ha]    energy [eV]    outer radius [A]
    1    0       -14.128000      -384.4424       1.637919
    2    0        -0.681077       -18.5330       4.463241
    2    1        -0.259788        -7.0692       4.518138


  Species O                   :

  List of atomic basis orbitals and eigenvalues:
    n    l      energy [Ha]    energy [eV]    outer radius [A]
    1    0       -18.898188      -514.2459       1.415765
    2    0        -0.878505       -23.9053       4.413171
    2    1        -0.331779        -9.0282       4.522403

  Assembling full basis from fixed parts.
  | Species H :   atomic orbital   1 s accepted.
  | Species H :    hydro orbital   2 s accepted.
  | Species H :    hydro orbital   2 p accepted.
  | Species C :   atomic orbital   1 s accepted.
  | Species C :    hydro orbital   2 s accepted.
  | Species C :   atomic orbital   2 s accepted.
  | Species C :   atomic orbital   2 p accepted.
  | Species C :    hydro orbital   2 p accepted.
  | Species C :    hydro orbital   3 d accepted.
  | Species N :   atomic orbital   1 s accepted.
  | Species N :    hydro orbital   3 s accepted.
  | Species N :   atomic orbital   2 s accepted.
  | Species N :   atomic orbital   2 p accepted.
  | Species N :    hydro orbital   2 p accepted.
  | Species N :    hydro orbital   3 d accepted.
  | Species O :   atomic orbital   1 s accepted.
  | Species O :    hydro orbital   3 s accepted.
  | Species O :   atomic orbital   2 s accepted.
  | Species O :   atomic orbital   2 p accepted.
  | Species O :    hydro orbital   2 p accepted.
  | Species O :    hydro orbital   3 d accepted.
 
  Basis size parameters after reduction:
  | Total number of radial functions:       21
  | Total number of basis functions :      119
 
  Per-task memory consumption for arrays in subroutine allocate_ext:
  |           5.250512MB.
  Testing on-site integration grid accuracy.
  |  Species  Function  <phi|h_atom|phi> (log., in eV)  <phi|h_atom|phi> (rad., in eV)
           1        1                 -6.4663192853                 -6.4651273558
           1        2                 13.7111246313                 13.7170609718
           1        3                 25.2673269279                 25.2674696378
           2        4               -273.1705927641               -273.1705631568
           2        5                -10.7109323383                -10.7107120029
           2        6                 17.4381822266                 17.4352413244
           2        7                 -5.2255326521                 -5.2270484734
           2        8                  8.6835629259                  8.6603288385
           2        9                 27.4952418996                 27.4953360207
           3       10               -384.4424306495               -384.4423701208
           3       11                 12.5842251816                 12.5842222903
           3       12                -15.7264628251                -15.7264433455
           3       13                 -7.0696854293                 -7.0701769954
           3       14                  8.8090390882                  8.7901077751
           3       15                 35.9586762123                 35.9588528632
           4       16               -514.2458688638               -514.2457643834
           4       17                 15.1795651126                 15.1795290741
           4       18                -21.5359799773                -21.5360846186
           4       19                 -9.0283069236                 -9.0284644067
           4       20                  8.3027758564                  8.2834874195
           4       21                 45.8339351984                 45.8338762259

  Preparing densities etc. for the partition functions (integrals / Hartree potential).

  Preparations completed.
  max(cpu_time)          :      0.145 s.
  Wall clock time (cpu1) :      0.146 s.
------------------------------------------------------------

------------------------------------------------------------
          Begin self-consistency loop: Initialization.

          Date     :  20200710, Time     :  144350.894
------------------------------------------------------------

  Initializing index lists of integration centers etc. from given atomic structure:
  | Number of centers in hartree potential         :        13
  | Number of centers in hartree multipole         :        13
  | Number of centers in electron density summation:        13
  | Number of centers in basis integrals           :        13
  | Number of centers in integrals                 :        13
  | Number of centers in hamiltonian               :        13
  Partitioning the integration grid into batches with parallel hashing+maxmin method.
  | Number of batches:      953
  | Maximal batch size:     139
  | Minimal batch size:      66
  | Average batch size:      73.081
  | Standard deviation of batch sizes:      17.869

  Integration load balanced across     1 MPI tasks.
  Work distribution over tasks is as follows:
  Task     0 has      69646 integration points.
  Initializing partition tables, free-atom densities, potentials, etc. across the integration grid (initialize_grid_storage).
  | initialize_grid_storage: Actual outermost partition radius vs. multipole_radius_free
  | (-- VB: in principle, multipole_radius_free should be larger, hence this output)
  | Species        1: Confinement radius =              4.999999999999999 AA, multipole_radius_free =              5.054417573612229 AA.
  | Species        1: outer_partition_radius set to              5.054417573612229 AA .
  | Species        2: Confinement radius =              4.999999999999999 AA, multipole_radius_free =              5.019602836301480 AA.
  | Species        2: outer_partition_radius set to              5.019602836301480 AA .
  | Species        3: Confinement radius =              4.999999999999999 AA, multipole_radius_free =              5.043624274424571 AA.
  | Species        3: outer_partition_radius set to              5.043624274424571 AA .
  | Species        4: Confinement radius =              4.999999999999999 AA, multipole_radius_free =              5.048384829883283 AA.
  | Species        4: outer_partition_radius set to              5.048384829883283 AA .
  | Original list of interatomic distances with          13 x         13 entries is created.
  | Net number of integration points:    69646
  | of which are non-zero points    :    59547
  Renormalizing the initial density to the exact electron count on the 3D integration grid.
  | Initial density: Formal number of electrons (from input files) :      48.0000000000
  | Integrated number of electrons on 3D grid     :      47.9999546259
  | Charge integration error                      :      -0.0000453741
  | Normalization factor for density and gradient :       1.0000009453
  Obtaining max. number of non-zero basis functions in each batch (get_n_compute_maxes).
  | Maximal number of non-zero basis functions:      119 in task     0
  Selecting the method for density update.
  Loop over occupied states selected for charge density update.
  Allocating        0.050 MB for KS_eigenvector
  Integrating Hamiltonian matrix: batch-based integration.
  Time summed over all CPUs for integration: real work        0.491 s, elapsed        0.491 s
  Integrating overlap matrix.
  Time summed over all CPUs for integration: real work        0.209 s, elapsed        0.209 s

  Updating Kohn-Sham eigenvalues and eigenvectors using ELSI and the ELPA eigensolver.
  Overlap matrix is nonsingular
  | Lowest eigenvalue of overlap  :  0.52E-02
  | Highest eigenvalue of overlap :  0.62E+01
  Finished singularity check of overlap matrix
  | Time :     0.002 s
  Finished Cholesky decomposition
  | Time :     0.000 s
  Finished transformation to standard eigenproblem
  | Time :     0.000 s
  Starting LAPACK eigensolver
  Finished solving standard eigenproblem
  | Time :     0.002 s
  Finished back-transformation of eigenvectors
  | Time :     0.000 s

  Obtaining occupation numbers and chemical potential using ELSI.
  | Chemical potential (Fermi level):    -8.83367363eV
  Writing Kohn-Sham eigenvalues.

  State    Occupation    Eigenvalue [Ha]    Eigenvalue [eV]
      1       2.00000         -19.007525         -517.22107
      2       2.00000         -18.977370         -516.40050
      3       2.00000         -14.245817         -387.64839
      4       2.00000         -10.166810         -276.65298
      5       2.00000         -10.141302         -275.95887
      6       2.00000         -10.131910         -275.70329
      7       2.00000          -1.183603          -32.20748
      8       2.00000          -1.096402          -29.83462
      9       2.00000          -0.991917          -26.99144
     10       2.00000          -0.858435          -23.35922
     11       2.00000          -0.758269          -20.63355
     12       2.00000          -0.682865          -18.58171
     13       2.00000          -0.624422          -16.99139
     14       2.00000          -0.605423          -16.47440
     15       2.00000          -0.579768          -15.77630
     16       2.00000          -0.573159          -15.59646
     17       2.00000          -0.554657          -15.09298
     18       2.00000          -0.537016          -14.61295
     19       2.00000          -0.522991          -14.23131
     20       2.00000          -0.493808          -13.43719
     21       2.00000          -0.457972          -12.46206
     22       2.00000          -0.423873          -11.53418
     23       2.00000          -0.409325          -11.13830
     24       2.00000          -0.385373          -10.48653
     25       0.00000          -0.162917           -4.43319
     26       0.00000          -0.063226           -1.72047
     27       0.00000          -0.029627           -0.80618
     28       0.00000          -0.025578           -0.69601
     29       0.00000          -0.008201           -0.22317
     30       0.00000           0.009534            0.25944
     31       0.00000           0.023904            0.65046
     32       0.00000           0.037150            1.01091
     33       0.00000           0.045326            1.23337
     34       0.00000           0.064366            1.75149
     35       0.00000           0.083940            2.28413
     36       0.00000           0.133714            3.63855
     37       0.00000           0.156613            4.26166
     38       0.00000           0.200786            5.46367
     39       0.00000           0.220319            5.99517
     40       0.00000           0.225644            6.14008
     41       0.00000           0.247577            6.73690
     42       0.00000           0.280194            7.62445
     43       0.00000           0.286145            7.78639
     44       0.00000           0.297309            8.09018
     45       0.00000           0.334948            9.11439
     46       0.00000           0.351329            9.56014
     47       0.00000           0.367583           10.00245
     48       0.00000           0.376581           10.24729
     49       0.00000           0.447579           12.17924
     50       0.00000           0.461929           12.56973
     51       0.00000           0.514178           13.99149
     52       0.00000           0.543510           14.78966
     53       0.00000           0.594199           16.16899

  Highest occupied state (VBM) at    -10.48653280 eV
  | Occupation number:      2.00000000

  Lowest unoccupied state (CBM) at    -4.43319050 eV
  | Occupation number:      0.00000000

  Overall HOMO-LUMO gap:      6.05334230 eV.
  Calculating total energy contributions from superposition of free atom densities.

  Total energy components:
  | Sum of eigenvalues            :        -188.82002579 Ha       -5138.05432295 eV
  | XC energy correction          :         -41.78288176 Ha       -1136.97006110 eV
  | XC potential correction       :          53.71194194 Ha        1461.57630443 eV
  | Free-atom electrostatic energy:        -146.86749297 Ha       -3996.46782178 eV
  | Hartree energy correction     :           0.00000000 Ha           0.00000000 eV
  | vdW energy correction         :           0.00000000 Ha           0.00000000 eV
  | Entropy correction            :           0.00000000 Ha           0.00000000 eV
  | ---------------------------
  | Total energy                  :        -323.75845857 Ha       -8809.91590140 eV
  | Total energy, T -> 0          :        -323.75845857 Ha       -8809.91590140 eV  <-- do not rely on this value for anything but (periodic) metals
  | Electronic free energy        :        -323.75845857 Ha       -8809.91590140 eV

  Derived energy quantities:
  | Kinetic energy                :         320.48582203 Ha        8720.86293004 eV
  | Electrostatic energy          :        -602.46139884 Ha      -16393.80877034 eV
  | Energy correction for multipole
  | error in Hartree potential    :           0.00000000 Ha           0.00000000 eV
  | Sum of eigenvalues per atom                           :        -395.23494792 eV
  | Total energy (T->0) per atom                          :        -677.68583857 eV  <-- do not rely on this value for anything but (periodic) metals
  | Electronic free energy per atom                       :        -677.68583857 eV
  Initialize hartree_potential_storage
  Max. number of atoms included in rho_multipole:           13

  End scf initialization - timings             :  max(cpu_time)    wall_clock(cpu1)
  | Time for scf. initialization               :        1.140 s           1.148 s
  | Boundary condition initialization          :        0.000 s           0.000 s
  | Integration                                :        0.700 s           0.700 s
  | Solution of K.-S. eqns.                    :        0.004 s           0.005 s
  | Grid partitioning                          :        0.110 s           0.117 s
  | Preloading free-atom quantities on grid    :        0.002 s           0.003 s
  | Free-atom superposition energy             :        0.084 s           0.084 s
  | Total energy evaluation                    :        0.000 s           0.000 s

  Partial memory accounting:
  | Current value for overall tracked memory usage on task 0  :           0.165 MB
  | Peak value for overall tracked memory usage on task 0     :           0.678 MB after allocating wave
  | Largest tracked array allocation on task 0 so far         :           0.132 MB  when allocating H_times_psi
  Note:  These values currently only include a subset of arrays which are explicitly tracked.
  The "true" memory usage will be greater.
------------------------------------------------------------

------------------------------------------------------------
          Begin self-consistency iteration #    1

  Date     :  20200710, Time     :  144352.042
------------------------------------------------------------
  Evaluating new KS density.
  Integration grid: deviation in total charge (<rho> - N_e) =  -2.842171E-14
  Pulay mixing of updated and previous charge densities.

  Evaluating partitioned Hartree potential by multipole expansion.
  | Analytical far-field extrapolation by fixed multipoles:
  | Hartree multipole sum: apparent total charge =  -0.154132E-03
  Summing up the Hartree potential.
  Time summed over all CPUs for potential: real work        0.282 s, elapsed        0.282 s
  | RMS charge density error from multipole expansion :   0.588565E-02

  Integrating Hamiltonian matrix: batch-based integration.
  Time summed over all CPUs for integration: real work        0.493 s, elapsed        0.493 s

  Updating Kohn-Sham eigenvalues and eigenvectors using ELSI and the ELPA eigensolver.
  Finished Cholesky decomposition
  | Time :     0.000 s
  Finished transformation to standard eigenproblem
  | Time :     0.000 s
  Starting LAPACK eigensolver
  Finished solving standard eigenproblem
  | Time :     0.001 s
  Finished back-transformation of eigenvectors
  | Time :     0.000 s

  Obtaining occupation numbers and chemical potential using ELSI.
  | Chemical potential (Fermi level):    -7.69184802eV
  Writing Kohn-Sham eigenvalues.

  State    Occupation    Eigenvalue [Ha]    Eigenvalue [eV]
      1       2.00000         -18.890936         -514.04851
      2       2.00000         -18.839189         -512.64040
      3       2.00000         -14.096676         -383.59008
      4       2.00000         -10.115707         -275.26238
      5       2.00000         -10.063016         -273.82860
      6       2.00000         -10.031613         -272.97407
      7       2.00000          -1.129909          -30.74638
      8       2.00000          -1.031753          -28.07543
      9       2.00000          -0.921946          -25.08743
     10       2.00000          -0.792679          -21.56989
     11       2.00000          -0.705733          -19.20397
     12       2.00000          -0.635397          -17.29002
     13       2.00000          -0.568744          -15.47631
     14       2.00000          -0.544296          -14.81105
     15       2.00000          -0.523532          -14.24604
     16       2.00000          -0.508321          -13.83211
     17       2.00000          -0.492847          -13.41106
     18       2.00000          -0.472813          -12.86589
     19       2.00000          -0.461164          -12.54891
     20       2.00000          -0.439795          -11.96743
     21       2.00000          -0.395438          -10.76041
     22       2.00000          -0.365236           -9.93857
     23       2.00000          -0.335314           -9.12436
     24       2.00000          -0.310505           -8.44928
     25       0.00000          -0.126938           -3.45417
     26       0.00000          -0.038499           -1.04761
     27       0.00000          -0.008813           -0.23982
     28       0.00000           0.016898            0.45983
     29       0.00000           0.020253            0.55111
     30       0.00000           0.049125            1.33676
     31       0.00000           0.061200            1.66534
     32       0.00000           0.072940            1.98479
     33       0.00000           0.088169            2.39920
     34       0.00000           0.104160            2.83434
     35       0.00000           0.124686            3.39289
     36       0.00000           0.162954            4.43421
     37       0.00000           0.182341            4.96176
     38       0.00000           0.228655            6.22202
     39       0.00000           0.254827            6.93419
     40       0.00000           0.263666            7.17471
     41       0.00000           0.281825            7.66885
     42       0.00000           0.315536            8.58617
     43       0.00000           0.321265            8.74206
     44       0.00000           0.331040            9.00806
     45       0.00000           0.374925           10.20222
     46       0.00000           0.391534           10.65419
     47       0.00000           0.403993           10.99322
     48       0.00000           0.422089           11.48561
     49       0.00000           0.487156           13.25618
     50       0.00000           0.494748           13.46278
     51       0.00000           0.552915           15.04558
     52       0.00000           0.577286           15.70875
     53       0.00000           0.632490           17.21094

  Highest occupied state (VBM) at     -8.44927758 eV
  | Occupation number:      2.00000000

  Lowest unoccupied state (CBM) at    -3.45416818 eV
  | Occupation number:      0.00000000

  Overall HOMO-LUMO gap:      4.99510939 eV.

  Total energy components:
  | Sum of eigenvalues            :        -185.34511518 Ha       -5043.49719439 eV
  | XC energy correction          :         -42.11487992 Ha       -1146.00419060 eV
  | XC potential correction       :          54.14383327 Ha        1473.32866536 eV
  | Free-atom electrostatic energy:        -146.86749297 Ha       -3996.46782178 eV
  | Hartree energy correction     :          -3.38870925 Ha         -92.21147023 eV
  | vdW energy correction         :           0.00000000 Ha           0.00000000 eV
  | Entropy correction            :           0.00000000 Ha           0.00000000 eV
  | ---------------------------
  | Total energy                  :        -323.57236405 Ha       -8804.85201163 eV
  | Total energy, T -> 0          :        -323.57236405 Ha       -8804.85201163 eV  <-- do not rely on this value for anything but (periodic) metals
  | Electronic free energy        :        -323.57236405 Ha       -8804.85201163 eV

  Derived energy quantities:
  | Kinetic energy                :         322.29841732 Ha        8770.18615750 eV
  | Electrostatic energy          :        -603.75590145 Ha      -16429.03397853 eV
  | Energy correction for multipole
  | error in Hartree potential    :           0.01209004 Ha           0.32898666 eV
  | Sum of eigenvalues per atom                           :        -387.96132265 eV
  | Total energy (T->0) per atom                          :        -677.29630859 eV  <-- do not rely on this value for anything but (periodic) metals
  | Electronic free energy per atom                       :        -677.29630859 eV

  Self-consistency convergence accuracy:
  | Change of charge density      :  0.5904E+00
  | Change of sum of eigenvalues  :  0.9456E+02 eV
  | Change of total energy        :  0.5064E+01 eV

  End self-consistency iteration #     1       :  max(cpu_time)    wall_clock(cpu1)
  | Time for this iteration                    :        1.183 s           1.184 s
  | Charge density update                      :        0.391 s           0.391 s
  | Density mixing                             :        0.005 s           0.006 s
  | Hartree multipole update                   :        0.009 s           0.009 s
  | Hartree multipole summation                :        0.283 s           0.282 s
  | Integration                                :        0.493 s           0.493 s
  | Solution of K.-S. eqns.                    :        0.002 s           0.003 s
  | Total energy evaluation                    :        0.000 s           0.000 s

  Partial memory accounting:
  | Current value for overall tracked memory usage on task 0  :           0.165 MB
  | Peak value for overall tracked memory usage on task 0     :           0.695 MB after allocating gradient_basis_wave
  | Largest tracked array allocation on task 0 so far         :           0.397 MB  when allocating gradient_basis_wave
  Note:  These values currently only include a subset of arrays which are explicitly tracked.
  The "true" memory usage will be greater.
------------------------------------------------------------

------------------------------------------------------------
          Begin self-consistency iteration #    2

  Date     :  20200710, Time     :  144353.227
------------------------------------------------------------
  Evaluating new KS density.
  Integration grid: deviation in total charge (<rho> - N_e) =   4.973799E-14
  Pulay mixing of updated and previous charge densities.

  Evaluating partitioned Hartree potential by multipole expansion.
  | Analytical far-field extrapolation by fixed multipoles:
  | Hartree multipole sum: apparent total charge =  -0.293366E-03
  Summing up the Hartree potential.
  Time summed over all CPUs for potential: real work        0.282 s, elapsed        0.282 s
  | RMS charge density error from multipole expansion :   0.139337E-01

  Integrating Hamiltonian matrix: batch-based integration.
  Time summed over all CPUs for integration: real work        0.493 s, elapsed        0.493 s

  Updating Kohn-Sham eigenvalues and eigenvectors using ELSI and the ELPA eigensolver.
  Finished Cholesky decomposition
  | Time :     0.000 s
  Finished transformation to standard eigenproblem
  | Time :     0.000 s
  Starting LAPACK eigensolver
  Finished solving standard eigenproblem
  | Time :     0.002 s
  Finished back-transformation of eigenvectors
  | Time :     0.000 s

  Obtaining occupation numbers and chemical potential using ELSI.
  | Chemical potential (Fermi level):    -6.33424230eV
  Highest occupied state (VBM) at     -6.40155313 eV
  | Occupation number:      2.00000000

  Lowest unoccupied state (CBM) at    -2.22346776 eV
  | Occupation number:      0.00000000

  Overall HOMO-LUMO gap:      4.17808537 eV.

  Checking to see if s.c.f. parameters should be adjusted.

  Total energy components:
  | Sum of eigenvalues            :        -181.69943619 Ha       -4944.29322164 eV
  | XC energy correction          :         -42.47685373 Ha       -1155.85399918 eV
  | XC potential correction       :          54.61320041 Ha        1486.10079506 eV
  | Free-atom electrostatic energy:        -146.86749297 Ha       -3996.46782178 eV
  | Hartree energy correction     :          -7.06106063 Ha        -192.14123590 eV
  | vdW energy correction         :           0.00000000 Ha           0.00000000 eV
  | Entropy correction            :          -0.00000000 Ha          -0.00000000 eV
  | ---------------------------
  | Total energy                  :        -323.49164312 Ha       -8802.65548344 eV
  | Total energy, T -> 0          :        -323.49164312 Ha       -8802.65548344 eV  <-- do not rely on this value for anything but (periodic) metals
  | Electronic free energy        :        -323.49164312 Ha       -8802.65548344 eV

  Derived energy quantities:
  | Kinetic energy                :         323.62478284 Ha        8806.27839971 eV
  | Electrostatic energy          :        -604.63957223 Ha      -16453.07988398 eV
  | Energy correction for multipole
  | error in Hartree potential    :           0.02660717 Ha           0.72401784 eV
  | Sum of eigenvalues per atom                           :        -380.33024782 eV
  | Total energy (T->0) per atom                          :        -677.12734488 eV  <-- do not rely on this value for anything but (periodic) metals
  | Electronic free energy per atom                       :        -677.12734488 eV

  Self-consistency convergence accuracy:
  | Change of charge density      :  0.3693E+00
  | Change of sum of eigenvalues  :  0.9920E+02 eV
  | Change of total energy        :  0.2197E+01 eV

  End self-consistency iteration #     2       :  max(cpu_time)    wall_clock(cpu1)
  | Time for this iteration                    :        1.175 s           1.176 s
  | Charge density update                      :        0.383 s           0.383 s
  | Density mixing                             :        0.007 s           0.006 s
  | Hartree multipole update                   :        0.009 s           0.008 s
  | Hartree multipole summation                :        0.282 s           0.282 s
  | Integration                                :        0.493 s           0.493 s
  | Solution of K.-S. eqns.                    :        0.002 s           0.002 s
  | Total energy evaluation                    :        0.000 s           0.001 s

  Partial memory accounting:
  | Current value for overall tracked memory usage on task 0  :           0.166 MB
  | Peak value for overall tracked memory usage on task 0     :           0.695 MB after allocating gradient_basis_wave
  | Largest tracked array allocation on task 0 so far         :           0.397 MB  when allocating gradient_basis_wave
  Note:  These values currently only include a subset of arrays which are explicitly tracked.
  The "true" memory usage will be greater.
------------------------------------------------------------

------------------------------------------------------------
          Begin self-consistency iteration #    3

  Date     :  20200710, Time     :  144354.403
------------------------------------------------------------
  Evaluating new KS density.
  Integration grid: deviation in total charge (<rho> - N_e) =  -4.973799E-14
  Pulay mixing of updated and previous charge densities.

  Evaluating partitioned Hartree potential by multipole expansion.
  | Analytical far-field extrapolation by fixed multipoles:
  | Hartree multipole sum: apparent total charge =  -0.392954E-03
  Summing up the Hartree potential.
  Time summed over all CPUs for potential: real work        0.282 s, elapsed        0.282 s
  | RMS charge density error from multipole expansion :   0.218633E-01

  Integrating Hamiltonian matrix: batch-based integration.
  Time summed over all CPUs for integration: real work        0.492 s, elapsed        0.492 s

  Updating Kohn-Sham eigenvalues and eigenvectors using ELSI and the ELPA eigensolver.
  Finished Cholesky decomposition
  | Time :     0.000 s
  Finished transformation to standard eigenproblem
  | Time :     0.000 s
  Starting LAPACK eigensolver
  Finished solving standard eigenproblem
  | Time :     0.002 s
  Finished back-transformation of eigenvectors
  | Time :     0.000 s

  Obtaining occupation numbers and chemical potential using ELSI.
  | Chemical potential (Fermi level):    -5.59752800eV
  Highest occupied state (VBM) at     -5.71021503 eV
  | Occupation number:      2.00000000

  Lowest unoccupied state (CBM) at    -1.55110118 eV
  | Occupation number:      0.00000000

  Overall HOMO-LUMO gap:      4.15911384 eV.

  Total energy components:
  | Sum of eigenvalues            :        -180.38294463 Ha       -4908.46966360 eV
  | XC energy correction          :         -42.62715977 Ha       -1159.94403477 eV
  | XC potential correction       :          54.80500102 Ha        1491.31995522 eV
  | Free-atom electrostatic energy:        -146.86749297 Ha       -3996.46782178 eV
  | Hartree energy correction     :          -8.40575653 Ha        -228.73227300 eV
  | vdW energy correction         :           0.00000000 Ha           0.00000000 eV
  | Entropy correction            :          -0.00000000 Ha          -0.00000000 eV
  | ---------------------------
  | Total energy                  :        -323.47835289 Ha       -8802.29383792 eV
  | Total energy, T -> 0          :        -323.47835289 Ha       -8802.29383792 eV  <-- do not rely on this value for anything but (periodic) metals
  | Electronic free energy        :        -323.47835289 Ha       -8802.29383792 eV

  Derived energy quantities:
  | Kinetic energy                :         323.19926998 Ha        8794.69960563 eV
  | Electrostatic energy          :        -604.05046310 Ha      -16437.04940878 eV
  | Energy correction for multipole
  | error in Hartree potential    :           0.03760839 Ha           1.02337629 eV
  | Sum of eigenvalues per atom                           :        -377.57458951 eV
  | Total energy (T->0) per atom                          :        -677.09952599 eV  <-- do not rely on this value for anything but (periodic) metals
  | Electronic free energy per atom                       :        -677.09952599 eV

  Self-consistency convergence accuracy:
  | Change of charge density      :  0.2071E+00
  | Change of sum of eigenvalues  :  0.3582E+02 eV
  | Change of total energy        :  0.3616E+00 eV

  End self-consistency iteration #     3       :  max(cpu_time)    wall_clock(cpu1)
  | Time for this iteration                    :        1.176 s           1.177 s
  | Charge density update                      :        0.383 s           0.383 s
  | Density mixing                             :        0.008 s           0.008 s
  | Hartree multipole update                   :        0.009 s           0.009 s
  | Hartree multipole summation                :        0.282 s           0.283 s
  | Integration                                :        0.492 s           0.492 s
  | Solution of K.-S. eqns.                    :        0.002 s           0.002 s
  | Total energy evaluation                    :        0.000 s           0.000 s

  Partial memory accounting:
  | Current value for overall tracked memory usage on task 0  :           0.166 MB
  | Peak value for overall tracked memory usage on task 0     :           0.695 MB after allocating gradient_basis_wave
  | Largest tracked array allocation on task 0 so far         :           0.397 MB  when allocating gradient_basis_wave
  Note:  These values currently only include a subset of arrays which are explicitly tracked.
  The "true" memory usage will be greater.
------------------------------------------------------------

------------------------------------------------------------
          Begin self-consistency iteration #    4

  Date     :  20200710, Time     :  144355.581
------------------------------------------------------------
  Evaluating new KS density.
  Integration grid: deviation in total charge (<rho> - N_e) =  -1.421085E-14
  Pulay mixing of updated and previous charge densities.

  Evaluating partitioned Hartree potential by multipole expansion.
  | Analytical far-field extrapolation by fixed multipoles:
  | Hartree multipole sum: apparent total charge =  -0.427144E-03
  Summing up the Hartree potential.
  Time summed over all CPUs for potential: real work        0.282 s, elapsed        0.282 s
  | RMS charge density error from multipole expansion :   0.252531E-01

  Integrating Hamiltonian matrix: batch-based integration.
  Time summed over all CPUs for integration: real work        0.492 s, elapsed        0.492 s

  Updating Kohn-Sham eigenvalues and eigenvectors using ELSI and the ELPA eigensolver.
  Finished Cholesky decomposition
  | Time :     0.000 s
  Finished transformation to standard eigenproblem
  | Time :     0.000 s
  Starting LAPACK eigensolver
  Finished solving standard eigenproblem
  | Time :     0.002 s
  Finished back-transformation of eigenvectors
  | Time :     0.000 s

  Obtaining occupation numbers and chemical potential using ELSI.
  | Chemical potential (Fermi level):    -3.43777271eV
  Highest occupied state (VBM) at     -5.53563778 eV
  | Occupation number:      2.00000000

  Lowest unoccupied state (CBM) at    -1.44773823 eV
  | Occupation number:      0.00000000

  Overall HOMO-LUMO gap:      4.08789955 eV.

  Total energy components:
  | Sum of eigenvalues            :        -180.22086643 Ha       -4904.05929140 eV
  | XC energy correction          :         -42.66544601 Ha       -1160.98585634 eV
  | XC potential correction       :          54.85326473 Ha        1492.63327778 eV
  | Free-atom electrostatic energy:        -146.86749297 Ha       -3996.46782178 eV
  | Hartree energy correction     :          -8.57681727 Ha        -233.38707260 eV
  | vdW energy correction         :           0.00000000 Ha           0.00000000 eV
  | Entropy correction            :           0.00000000 Ha           0.00000000 eV
  | ---------------------------
  | Total energy                  :        -323.47735795 Ha       -8802.26676434 eV
  | Total energy, T -> 0          :        -323.47735795 Ha       -8802.26676434 eV  <-- do not rely on this value for anything but (periodic) metals
  | Electronic free energy        :        -323.47735795 Ha       -8802.26676434 eV

  Derived energy quantities:
  | Kinetic energy                :         322.81248123 Ha        8784.17454818 eV
  | Electrostatic energy          :        -603.62439317 Ha      -16425.45545618 eV
  | Energy correction for multipole
  | error in Hartree potential    :           0.04186537 Ha           1.13921467 eV
  | Sum of eigenvalues per atom                           :        -377.23533011 eV
  | Total energy (T->0) per atom                          :        -677.09744341 eV  <-- do not rely on this value for anything but (periodic) metals
  | Electronic free energy per atom                       :        -677.09744341 eV

  Self-consistency convergence accuracy:
  | Change of charge density      :  0.6658E-01
  | Change of sum of eigenvalues  :  0.4410E+01 eV
  | Change of total energy        :  0.2707E-01 eV

  End self-consistency iteration #     4       :  max(cpu_time)    wall_clock(cpu1)
  | Time for this iteration                    :        1.177 s           1.178 s
  | Charge density update                      :        0.383 s           0.383 s
  | Density mixing                             :        0.009 s           0.009 s
  | Hartree multipole update                   :        0.009 s           0.009 s
  | Hartree multipole summation                :        0.282 s           0.282 s
  | Integration                                :        0.492 s           0.492 s
  | Solution of K.-S. eqns.                    :        0.002 s           0.002 s
  | Total energy evaluation                    :        0.000 s           0.000 s

  Partial memory accounting:
  | Current value for overall tracked memory usage on task 0  :           0.166 MB
  | Peak value for overall tracked memory usage on task 0     :           0.696 MB after allocating gradient_basis_wave
  | Largest tracked array allocation on task 0 so far         :           0.397 MB  when allocating gradient_basis_wave
  Note:  These values currently only include a subset of arrays which are explicitly tracked.
  The "true" memory usage will be greater.
------------------------------------------------------------

------------------------------------------------------------
          Begin self-consistency iteration #    5

  Date     :  20200710, Time     :  144356.759
------------------------------------------------------------
  Evaluating new KS density.
  Integration grid: deviation in total charge (<rho> - N_e) =   2.842171E-14
  Pulay mixing of updated and previous charge densities.

  Evaluating partitioned Hartree potential by multipole expansion.
  | Analytical far-field extrapolation by fixed multipoles:
  | Hartree multipole sum: apparent total charge =  -0.420955E-03
  Summing up the Hartree potential.
  Time summed over all CPUs for potential: real work        0.281 s, elapsed        0.281 s
  | RMS charge density error from multipole expansion :   0.250298E-01

  Integrating Hamiltonian matrix: batch-based integration.
  Time summed over all CPUs for integration: real work        0.492 s, elapsed        0.492 s

  Updating Kohn-Sham eigenvalues and eigenvectors using ELSI and the ELPA eigensolver.
  Finished Cholesky decomposition
  | Time :     0.000 s
  Finished transformation to standard eigenproblem
  | Time :     0.000 s
  Starting LAPACK eigensolver
  Finished solving standard eigenproblem
  | Time :     0.001 s
  Finished back-transformation of eigenvectors
  | Time :     0.000 s

  Obtaining occupation numbers and chemical potential using ELSI.
  | Chemical potential (Fermi level):    -3.51952021eV
  Highest occupied state (VBM) at     -5.63180605 eV
  | Occupation number:      2.00000000

  Lowest unoccupied state (CBM) at    -1.54773751 eV
  | Occupation number:      0.00000000

  Overall HOMO-LUMO gap:      4.08406854 eV.

  Total energy components:
  | Sum of eigenvalues            :        -180.44414816 Ha       -4910.13509633 eV
  | XC energy correction          :         -42.63867276 Ha       -1160.25731918 eV
  | XC potential correction       :          54.81851087 Ha        1491.68757690 eV
  | Free-atom electrostatic energy:        -146.86749297 Ha       -3996.46782178 eV
  | Hartree energy correction     :          -8.34526268 Ha        -227.08615144 eV
  | vdW energy correction         :           0.00000000 Ha           0.00000000 eV
  | Entropy correction            :           0.00000000 Ha           0.00000000 eV
  | ---------------------------
  | Total energy                  :        -323.47706570 Ha       -8802.25881181 eV
  | Total energy, T -> 0          :        -323.47706570 Ha       -8802.25881181 eV  <-- do not rely on this value for anything but (periodic) metals
  | Electronic free energy        :        -323.47706570 Ha       -8802.25881181 eV

  Derived energy quantities:
  | Kinetic energy                :         322.67910881 Ha        8780.54529984 eV
  | Electrostatic energy          :        -603.51750175 Ha      -16422.54679248 eV
  | Energy correction for multipole
  | error in Hartree potential    :           0.04123008 Ha           1.12192762 eV
  | Sum of eigenvalues per atom                           :        -377.70269972 eV
  | Total energy (T->0) per atom                          :        -677.09683168 eV  <-- do not rely on this value for anything but (periodic) metals
  | Electronic free energy per atom                       :        -677.09683168 eV

  Self-consistency convergence accuracy:
  | Change of charge density      :  0.2017E-01
  | Change of sum of eigenvalues  : -0.6076E+01 eV
  | Change of total energy        :  0.7953E-02 eV

  End self-consistency iteration #     5       :  max(cpu_time)    wall_clock(cpu1)
  | Time for this iteration                    :        1.178 s           1.179 s
  | Charge density update                      :        0.383 s           0.383 s
  | Density mixing                             :        0.011 s           0.011 s
  | Hartree multipole update                   :        0.009 s           0.009 s
  | Hartree multipole summation                :        0.282 s           0.282 s
  | Integration                                :        0.492 s           0.492 s
  | Solution of K.-S. eqns.                    :        0.002 s           0.002 s
  | Total energy evaluation                    :        0.000 s           0.000 s

  Partial memory accounting:
  | Current value for overall tracked memory usage on task 0  :           0.166 MB
  | Peak value for overall tracked memory usage on task 0     :           0.696 MB after allocating gradient_basis_wave
  | Largest tracked array allocation on task 0 so far         :           0.397 MB  when allocating gradient_basis_wave
  Note:  These values currently only include a subset of arrays which are explicitly tracked.
  The "true" memory usage will be greater.
------------------------------------------------------------

------------------------------------------------------------
          Begin self-consistency iteration #    6

  Date     :  20200710, Time     :  144357.939
------------------------------------------------------------
  Evaluating new KS density.
  Integration grid: deviation in total charge (<rho> - N_e) =   0.000000E+00
  Pulay mixing of updated and previous charge densities.

  Evaluating partitioned Hartree potential by multipole expansion.
  | Analytical far-field extrapolation by fixed multipoles:
  | Hartree multipole sum: apparent total charge =  -0.426077E-03
  Summing up the Hartree potential.
  Time summed over all CPUs for potential: real work        0.282 s, elapsed        0.282 s
  | RMS charge density error from multipole expansion :   0.255069E-01

  Integrating Hamiltonian matrix: batch-based integration.
  Time summed over all CPUs for integration: real work        0.492 s, elapsed        0.492 s

  Updating Kohn-Sham eigenvalues and eigenvectors using ELSI and the ELPA eigensolver.
  Finished Cholesky decomposition
  | Time :     0.000 s
  Finished transformation to standard eigenproblem
  | Time :     0.000 s
  Starting LAPACK eigensolver
  Finished solving standard eigenproblem
  | Time :     0.002 s
  Finished back-transformation of eigenvectors
  | Time :     0.000 s

  Obtaining occupation numbers and chemical potential using ELSI.
  | Chemical potential (Fermi level):    -3.50888009eV
  Highest occupied state (VBM) at     -5.58419082 eV
  | Occupation number:      2.00000000

  Lowest unoccupied state (CBM) at    -1.54355456 eV
  | Occupation number:      0.00000000

  Overall HOMO-LUMO gap:      4.04063626 eV.

  Total energy components:
  | Sum of eigenvalues            :        -180.40605180 Ha       -4909.09844169 eV
  | XC energy correction          :         -42.64213124 Ha       -1160.35142920 eV
  | XC potential correction       :          54.82297995 Ha        1491.80918692 eV
  | Free-atom electrostatic energy:        -146.86749297 Ha       -3996.46782178 eV
  | Hartree energy correction     :          -8.38433214 Ha        -228.14928566 eV
  | vdW energy correction         :           0.00000000 Ha           0.00000000 eV
  | Entropy correction            :           0.00000000 Ha           0.00000000 eV
  | ---------------------------
  | Total energy                  :        -323.47702821 Ha       -8802.25779141 eV
  | Total energy, T -> 0          :        -323.47702821 Ha       -8802.25779141 eV  <-- do not rely on this value for anything but (periodic) metals
  | Electronic free energy        :        -323.47702821 Ha       -8802.25779141 eV

  Derived energy quantities:
  | Kinetic energy                :         322.61784020 Ha        8778.87809635 eV
  | Electrostatic energy          :        -603.45273716 Ha      -16420.78445856 eV
  | Energy correction for multipole
  | error in Hartree potential    :           0.04174578 Ha           1.13596049 eV
  | Sum of eigenvalues per atom                           :        -377.62295705 eV
  | Total energy (T->0) per atom                          :        -677.09675319 eV  <-- do not rely on this value for anything but (periodic) metals
  | Electronic free energy per atom                       :        -677.09675319 eV

  Self-consistency convergence accuracy:
  | Change of charge density      :  0.1045E-01
  | Change of sum of eigenvalues  :  0.1037E+01 eV
  | Change of total energy        :  0.1020E-02 eV

  End self-consistency iteration #     6       :  max(cpu_time)    wall_clock(cpu1)
  | Time for this iteration                    :        1.181 s           1.182 s
  | Charge density update                      :        0.384 s           0.384 s
  | Density mixing                             :        0.012 s           0.012 s
  | Hartree multipole update                   :        0.009 s           0.009 s
  | Hartree multipole summation                :        0.282 s           0.282 s
  | Integration                                :        0.492 s           0.492 s
  | Solution of K.-S. eqns.                    :        0.002 s           0.002 s
  | Total energy evaluation                    :        0.000 s           0.000 s

  Partial memory accounting:
  | Current value for overall tracked memory usage on task 0  :           0.166 MB
  | Peak value for overall tracked memory usage on task 0     :           0.696 MB after allocating gradient_basis_wave
  | Largest tracked array allocation on task 0 so far         :           0.397 MB  when allocating gradient_basis_wave
  Note:  These values currently only include a subset of arrays which are explicitly tracked.
  The "true" memory usage will be greater.
------------------------------------------------------------

------------------------------------------------------------
          Begin self-consistency iteration #    7

  Date     :  20200710, Time     :  144359.121
------------------------------------------------------------
  Evaluating new KS density.
  Integration grid: deviation in total charge (<rho> - N_e) =  -4.263256E-14
  Pulay mixing of updated and previous charge densities.

  Evaluating partitioned Hartree potential by multipole expansion.
  | Analytical far-field extrapolation by fixed multipoles:
  | Hartree multipole sum: apparent total charge =  -0.426655E-03
  Summing up the Hartree potential.
  Time summed over all CPUs for potential: real work        0.282 s, elapsed        0.282 s
  | RMS charge density error from multipole expansion :   0.255841E-01

  Integrating Hamiltonian matrix: batch-based integration.
  Time summed over all CPUs for integration: real work        0.493 s, elapsed        0.493 s

  Updating Kohn-Sham eigenvalues and eigenvectors using ELSI and the ELPA eigensolver.
  Finished Cholesky decomposition
  | Time :     0.000 s
  Finished transformation to standard eigenproblem
  | Time :     0.000 s
  Starting LAPACK eigensolver
  Finished solving standard eigenproblem
  | Time :     0.002 s
  Finished back-transformation of eigenvectors
  | Time :     0.000 s

[...]
  |   Hirshfeld dipole moment :      0.05876479
  |   Hirshfeld second moments:      0.01069760      -0.03224570      -0.02057152
  |                                 -0.03224570      -0.01933237       0.00963202
  |                                 -0.02057152       0.00963202      -0.01606548
  ----------------------------------------------------------------------
  | Atom    12: O
  |   Hirshfeld charge        :     -0.17245918
  |   Free atom volume        :     23.61338643
  |   Hirshfeld volume        :     21.09752167
  |   Hirshfeld dipole vector :      0.03687478       0.01576875       0.01198570
  |   Hirshfeld dipole moment :      0.04185762
  |   Hirshfeld second moments:      0.05136315      -0.02863781      -0.01217994
  |                                 -0.02863781       0.07909784       0.03764148
  |                                 -0.01217994       0.03764148       0.02250316
  ----------------------------------------------------------------------
  | Atom    13: H
  |   Hirshfeld charge        :      0.18634574
  |   Free atom volume        :      9.95071624
  |   Hirshfeld volume        :      6.22552101
  |   Hirshfeld dipole vector :      0.09046772      -0.08626112      -0.04196884
  |   Hirshfeld dipole moment :      0.13185891
  |   Hirshfeld second moments:      0.11940583      -0.00035513      -0.00023954
  |                                 -0.00035513       0.12257789       0.01165741
  |                                 -0.00023954       0.01165741       0.10124194
  ----------------------------------------------------------------------


  Total energy components:
  | Sum of eigenvalues            :        -180.41160713 Ha       -4909.24960997 eV
  | XC energy correction          :         -42.63816639 Ha       -1160.24354013 eV
  | XC potential correction       :          54.81793339 Ha        1491.67186291 eV
  | Free-atom electrostatic energy:        -146.86749297 Ha       -3996.46782178 eV
  | Hartree energy correction     :          -8.37766850 Ha        -227.96795873 eV
  | vdW energy correction         :          -0.00333613 Ha          -0.09078079 eV
  | Entropy correction            :           0.00000000 Ha           0.00000000 eV
  | ---------------------------
  | Total energy                  :        -323.48033774 Ha       -8802.34784848 eV
  | Total energy, T -> 0          :        -323.48033774 Ha       -8802.34784848 eV  <-- do not rely on this value for anything but (periodic) metals
  | Electronic free energy        :        -323.48033774 Ha       -8802.34784848 eV

  Derived energy quantities:
  | Kinetic energy                :         322.58000364 Ha        8777.84851118 eV
  | Electrostatic energy          :        -603.41883886 Ha      -16419.86203874 eV
  | Energy correction for multipole
  | error in Hartree potential    :           0.04177212 Ha           1.13667711 eV
  | Sum of eigenvalues per atom                           :        -377.63458538 eV
  | Total energy (T->0) per atom                          :        -677.10368065 eV  <-- do not rely on this value for anything but (periodic) metals
  | Electronic free energy per atom                       :        -677.10368065 eV

  atomic forces [eV/Ang]:
  -----------------------
  atom #    1
   Hellmann-Feynman              : -0.100605E+00  0.738664E+00  0.101741E+01
   Ionic forces                  :  0.000000E+00  0.000000E+00  0.000000E+00
   Multipole                     :  0.374740E-01  0.405974E+00 -0.267594E+00
   Pulay + GGA                   : -0.741033E+00 -0.442000E+00 -0.130948E+01
   Van der Waals                 :  0.276874E-02  0.723425E-02 -0.875288E-03
   ----------------------------------------------------------------
   Total forces(   1)            : -0.801396E+00  0.709871E+00 -0.560536E+00
  atom #    2
   Hellmann-Feynman              :  0.253472E+00 -0.363278E-01 -0.116539E+00
   Ionic forces                  :  0.000000E+00  0.000000E+00  0.000000E+00
   Multipole                     :  0.183086E+00  0.319658E-01 -0.267104E-02
   Pulay + GGA                   : -0.138256E+00  0.102851E-01  0.390830E-01
   Van der Waals                 :  0.302605E-02 -0.684001E-02 -0.650534E-02
   ----------------------------------------------------------------
   Total forces(   2)            :  0.301328E+00 -0.916952E-03 -0.866325E-01
  atom #    3
   Hellmann-Feynman              :  0.157079E+01 -0.112887E+02 -0.355601E+01
   Ionic forces                  :  0.000000E+00  0.000000E+00  0.000000E+00
   Multipole                     : -0.156064E+00  0.186886E-01 -0.865859E+00
   Pulay + GGA                   : -0.778556E+00  0.105562E+02  0.499766E+01
   Van der Waals                 :  0.340371E-02 -0.373852E-02 -0.898119E-02
   ----------------------------------------------------------------
   Total forces(   3)            :  0.639570E+00 -0.717520E+00  0.566804E+00
  atom #    4
   Hellmann-Feynman              : -0.862397E-01  0.215355E+00 -0.100857E+00
   Ionic forces                  :  0.000000E+00  0.000000E+00  0.000000E+00
   Multipole                     : -0.840146E-01  0.469669E-01 -0.559073E-01
   Pulay + GGA                   :  0.202256E+00 -0.160548E+00 -0.291605E-01
   Van der Waals                 : -0.716091E-03  0.297074E-02 -0.103136E-01
   ----------------------------------------------------------------
   Total forces(   4)            :  0.312853E-01  0.104745E+00 -0.196238E+00
  atom #    5
   Hellmann-Feynman              : -0.928282E-01  0.369126E+00 -0.360661E-01
   Ionic forces                  :  0.000000E+00  0.000000E+00  0.000000E+00
   Multipole                     :  0.116557E-01  0.510768E-01 -0.100319E+00
   Pulay + GGA                   : -0.907794E-01 -0.198314E+00  0.678504E-01
   Van der Waals                 : -0.202205E-02 -0.658046E-02 -0.432615E-02
   ----------------------------------------------------------------
   Total forces(   5)            : -0.173974E+00  0.215309E+00 -0.728606E-01
  atom #    6
   Hellmann-Feynman              :  0.465353E+00 -0.739009E+00  0.653053E+00
   Ionic forces                  :  0.000000E+00  0.000000E+00  0.000000E+00
   Multipole                     : -0.928223E-01  0.612331E+00  0.200192E+00
   Pulay + GGA                   : -0.802256E-02 -0.224246E+00 -0.440157E+00
   Van der Waals                 : -0.297384E-02  0.938189E-02  0.761749E-02
   ----------------------------------------------------------------
   Total forces(   6)            :  0.361534E+00 -0.341543E+00  0.420705E+00
  atom #    7
   Hellmann-Feynman              : -0.231868E+00 -0.709502E-01 -0.618849E-01
   Ionic forces                  :  0.000000E+00  0.000000E+00  0.000000E+00
   Multipole                     : -0.123335E+00  0.485979E-01  0.353222E-01
   Pulay + GGA                   :  0.115860E+00  0.168970E-01  0.351635E-01
   Van der Waals                 : -0.152657E-02  0.460121E-02  0.743049E-02
   ----------------------------------------------------------------
   Total forces(   7)            : -0.240869E+00 -0.854029E-03  0.160314E-01
  atom #    8
   Hellmann-Feynman              :  0.247346E-01  0.533266E-01  0.252680E+00
   Ionic forces                  :  0.000000E+00  0.000000E+00  0.000000E+00
   Multipole                     :  0.168907E-01  0.607510E-01  0.124132E+00
   Pulay + GGA                   : -0.478199E-01 -0.426199E-01 -0.102910E+00
   Van der Waals                 : -0.290326E-02  0.114540E-01  0.648191E-03
   ----------------------------------------------------------------
   Total forces(   8)            : -0.909790E-02  0.829117E-01  0.274550E+00
  atom #    9
   Hellmann-Feynman              :  0.103536E+00  0.584839E-01 -0.171512E+00
   Ionic forces                  :  0.000000E+00  0.000000E+00  0.000000E+00
   Multipole                     :  0.187996E-01  0.127789E+00 -0.904094E-02
   Pulay + GGA                   : -0.442735E-01 -0.798913E-01  0.534379E-01
   Van der Waals                 : -0.271769E-02  0.585231E-02  0.681449E-02
   ----------------------------------------------------------------
   Total forces(   9)            :  0.753442E-01  0.112233E+00 -0.120300E+00
  atom #   10
   Hellmann-Feynman              :  0.312394E+01  0.504416E+01  0.146395E+01
   Ionic forces                  :  0.000000E+00  0.000000E+00  0.000000E+00
   Multipole                     :  0.198900E-01 -0.155349E+00  0.372410E+00
   Pulay + GGA                   : -0.215283E+01 -0.255120E+01  0.360417E-01
   Van der Waals                 :  0.592678E-02 -0.140331E-01  0.112749E-02
   ----------------------------------------------------------------
   Total forces(  10)            :  0.996932E+00  0.232358E+01  0.187353E+01
  atom #   11
   Hellmann-Feynman              :  0.405915E+01 -0.217849E+01  0.137141E+02
   Ionic forces                  :  0.000000E+00  0.000000E+00  0.000000E+00
   Multipole                     :  0.371853E-01 -0.690923E+00  0.799630E+00
   Pulay + GGA                   : -0.318637E+01  0.367739E+01 -0.134076E+02
   Van der Waals                 : -0.333127E-02 -0.108911E-01  0.443779E-02
   ----------------------------------------------------------------
   Total forces(  11)            :  0.906639E+00  0.797088E+00  0.111062E+01
  atom #   12
   Hellmann-Feynman              : -0.149393E+02 -0.184338E+01 -0.522842E+01
   Ionic forces                  :  0.000000E+00  0.000000E+00  0.000000E+00
   Multipole                     : -0.104014E+01 -0.114080E+01 -0.325773E+00
   Pulay + GGA                   :  0.144267E+02  0.683762E+00  0.292663E+01
   Van der Waals                 :  0.147803E-02  0.390298E-02  0.524751E-02
   ----------------------------------------------------------------
   Total forces(  12)            : -0.155130E+01 -0.229651E+01 -0.262231E+01
  atom #   13
   Hellmann-Feynman              : -0.229244E+00 -0.119228E+01 -0.695831E+00
   Ionic forces                  :  0.000000E+00  0.000000E+00  0.000000E+00
   Multipole                     :  0.418170E-01 -0.278442E-01 -0.215479E-01
   Pulay + GGA                   : -0.345531E+00  0.233216E+00  0.112098E+00
   Van der Waals                 : -0.412551E-03 -0.331408E-02 -0.232193E-02
   ----------------------------------------------------------------
   Total forces(  13)            : -0.533371E+00 -0.990219E+00 -0.607603E+00

  Timings for VdW correction (Tkatchenko-Scheffler 2009 or later):
  | CPU time:        0.089 s, Wall clock time:        0.089 s.
  Removing unitary transformations (pure translations, rotations) from forces on atoms.
  Atomic forces before filtering:
  | Net force on center of mass :   0.262529E-02 -0.183144E-02 -0.424171E-02 eV/A
  | Net torque on center of mass:   0.301980E-03  0.337965E-02  0.670050E-02 eV
  Atomic forces after filtering:
  | Net force on center of mass :   0.356812E-15  0.000000E+00  0.267609E-15 eV/A
  | Net torque on center of mass:  -0.212419E-14 -0.612180E-16  0.755268E-15 eV

  Energy and forces in a compact form:
  | Total energy uncorrected      :         -0.880234784848078E+04 eV
  | Total energy corrected        :         -0.880234784848078E+04 eV  <-- do not rely on this value for anything but (periodic) metals
  | Electronic free energy        :         -0.880234784848078E+04 eV
  Total atomic forces (unitary forces cleaned) [eV/Ang]:
  |   1         -0.801572153337642E+00          0.709929877840090E+00         -0.560152262593498E+00
  |   2          0.301152277037796E+00         -0.108467152204029E-02         -0.860855590028608E-01
  |   3          0.639604150113283E+00         -0.717378297323010E+00          0.567116371313887E+00
  |   4          0.313828408192020E-01          0.105088863923132E+00         -0.196075231045497E+00
  |   5         -0.173724727117691E+00          0.215325841487234E+00         -0.724707562562143E-01
  |   6          0.361510853764000E+00         -0.341372701769250E+00          0.421000664945262E+00
  |   7         -0.240888973949300E+00         -0.457542078084846E-03          0.161634280761489E-01
  |   8         -0.927241376253977E-02          0.830188002324436E-01          0.274899396859721E+00
  |   9          0.755824722965746E-01          0.112322552156022E+00         -0.119961712269807E+00
  |  10          0.996377885994128E+00          0.232372694320816E+01          0.187387159214512E+01
  |  11          0.905858196554163E+00          0.797189582870499E+00          0.111100395006875E+01
  |  12         -0.155192949275853E+01         -0.229622596365308E+01         -0.262206581554382E+01
  |  13         -0.534080915653447E+00         -0.990083285372109E+00         -0.607244066697184E+00

  ------------------------------------ 
  Start decomposition of the XC Energy 
  ------------------------------------ 
  X and C from original XC functional choice 
  Hartree-Fock Energy :          0.000000000 Ha              0.000000000 eV
  X Energy            :        -41.037966155 Ha          -1116.699876140 eV
  C Energy            :         -1.600200239 Ha            -43.543663991 eV
  Total XC Energy     :        -42.638166394 Ha          -1160.243540130 eV
  ------------------------------------ 
  LDA X and C from self-consistent density 
  X Energy LDA        :        -37.255933700 Ha          -1013.785536804 eV
  C Energy LDA        :         -3.138508074 Ha            -85.403149954 eV
  ------------------------------------ 
  End decomposition of the XC Energy 
  ------------------------------------ 

------------------------------------------------------------

------------------------------------------------------------------------------
  Final output of selected total energy values:

  The following output summarizes some interesting total energy values
  at the end of a run (AFTER all relaxation, molecular dynamics, etc.).

  | Total energy of the DFT / Hartree-Fock s.c.f. calculation      :          -8802.347848481 eV
  | Final zero-broadening corrected energy (caution - metals only) :          -8802.347848481 eV
  | For reference only, the value of 1 Hartree used in FHI-aims is :             27.211384500 eV

  Before relying on these values, please be sure to understand exactly which
  total energy value is referred to by a given number. Different objects may
  all carry the same name 'total energy'. Definitions:

  Total energy of the DFT / Hartree-Fock s.c.f. calculation:
  | Note that this energy does not include ANY quantities calculated after the
  | s.c.f. cycle, in particular not ANY RPA, MP2, etc. many-body perturbation terms.

  Final zero-broadening corrected energy:
  | For metallic systems only, a broadening of the occupation numbers at the Fermi
  | level can be extrapolated back to zero broadening by an electron-gas inspired
  | formula. For all systems that are not real metals, this value can be
  | meaningless and should be avoided.

------------------------------------------------------------------------------
  Methods described in the following list of references were used in this FHI-aims run.
  If you publish the results, please make sure to cite these reference if they apply.
  FHI-aims is an academic code, and for our developers (often, Ph.D. students
  and postdocs), scientific credit in the community is essential.
  Thank you for helping us!

  For any use of FHI-aims, please cite:

    Volker Blum, Ralf Gehrke, Felix Hanke, Paula Havu, Ville Havu,
    Xinguo Ren, Karsten Reuter, and Matthias Scheffler
    'Ab initio molecular simulations with numeric atom-centered orbitals'
    Computer Physics Communications 180, 2175-2196 (2009)
    http://dx.doi.org/10.1016/j.cpc.2009.06.022


  The scalable eigensolver library ELPA was used in your run.
  ELPA is essential especially for large systems on hundreds or thousands of CPUs.
  For ELPA, please cite:

    Andreas Marek, Volker Blum, Rainer Johanni, Ville Havu, Bruno Lang,
    Thomas Auckenthaler, Alexander Heinecke, Hans-Joachim Bungartz, and Hermann Lederer,
    'The ELPA Library - Scalable Parallel Eigenvalue Solutions
    for Electronic Structure Theory and Computational Science'
    The Journal of Physics: Condensed Matter 26, 213201 (2014).
    http://dx.doi.org/10.1088/0953-8984/26/21/213201


  The ELSI infrastructure was used in your run to solve the Kohn-Sham electronic structure.
  Please check out http://elsi-interchange.org to learn more.
  If scalability is important for your project, please acknowledge ELSI by citing:

    V. W-z. Yu, F. Corsetti, A. Garcia, W. P. Huhn, M. Jacquelin, W. Jia,
    B. Lange, L. Lin, J. Lu, W. Mi, A. Seifitokaldani, A. Vazquez-Mayagoitia,
    C. Yang, H. Yang, and V. Blum
    'ELSI: A unified software interface for Kohn-Sham electronic structure solvers'
    Computer Physics Communications 222, 267-285 (2018).
    http://dx.doi.org/10.1016/j.cpc.2017.09.007


  For the real-space grid partitioning and parallelization used in this calculation, please cite:

    Ville Havu, Volker Blum, Paula Havu, and Matthias Scheffler,
    'Efficient O(N) integration for all-electron electronic structure calculation'
    'using numerically tabulated basis functions'
    Journal of Computational Physics 228, 8367-8379 (2009).
    http://dx.doi.org/10.1016/j.jcp.2009.08.008

  Of course, there are many other important community references, e.g., those cited in the
  above references. Our list is limited to references that describe implementations in the
  FHI-aims code. The reason is purely practical (length of this list) - please credit others as well.

------------------------------------------------------------
          Leaving FHI-aims.
          Date     :  20200710, Time     :  144413.315

          Computational steps:
          | Number of self-consistency cycles          :           16
          | Number of SCF (re)initializations          :            1

          Detailed time accounting                     :  max(cpu_time)    wall_clock(cpu1)
          | Total time                                 :       22.533 s          22.581 s
          | Preparation time                           :        0.145 s           0.146 s
          | Boundary condition initalization           :        0.000 s           0.000 s
          | Grid partitioning                          :        0.110 s           0.117 s
          | Preloading free-atom quantities on grid    :        0.002 s           0.003 s
          | Free-atom superposition energy             :        0.084 s           0.084 s
          | Total time for integrations                :        8.571 s           8.575 s
          | Total time for solution of K.-S. equations :        0.037 s           0.038 s
          | Total time for density & force components  :        7.070 s           7.080 s
          | Total time for mixing                      :        0.212 s           0.214 s
          | Total time for Hartree multipole update    :        0.139 s           0.142 s
          | Total time for Hartree multipole sum       :        5.767 s           5.775 s
          | Total time for total energy evaluation     :        0.003 s           0.002 s
          | Total time for vdW correction              :        0.089 s           0.089 s

          Partial memory accounting:
          | Residual value for overall tracked memory usage across tasks :           0.000 MB (should be 0.000 MB)
          | Peak values for overall tracked memory usage (after allocating hessian_basis_wave):
          |   Minimum:        1.622 MB (on task 1)
          |   Maximum:        1.622 MB (on task 1)
          |   Average:        1.622 MB
          | Largest tracked array allocation (hessian_basis_wave):
          |   Minimum:        0.794 MB (on task 1)
          |   Maximum:        0.794 MB (on task 1)
          |   Average:        0.794 MB
          Note:  These values currently only include a subset of arrays which are explicitly tracked.
          The "true" memory usage will be greater.

          Have a nice day.
------------------------------------------------------------
