  MPI-parallelism will be employed.
------------------------------------------------------------
          Invoking FHI-aims ...
          Version 171221_1
          Compiled on 2019/09/09 at 14:39:39 on host puhti-login2.bullx.

          When using FHI-aims, please cite the following reference:

          Volker Blum, Ralf Gehrke, Felix Hanke, Paula Havu,
          Ville Havu, Xinguo Ren, Karsten Reuter, and Matthias Scheffler,
          'Ab Initio Molecular Simulations with Numeric Atom-Centered Orbitals',
          Computer Physics Communications 180, 2175-2196 (2009)

          For any questions about FHI-aims, please visit the aimsclub website
          with its forums and wiki. Contributions to both the forums and the
          wiki are warmly encouraged - they are for you, and everyone is welcome there.

------------------------------------------------------------



  Date     :  20200805, Time     :  190055.294
  Time zero on CPU 1             :   0.166380000000000E-01  s.
  Internal wall clock time zero  :           365886055.294  s.

  FHI-aims created a unique identifier for this run for later identification
  aims_uuid : BF870CEC-3DBF-4C64-A6FB-8D5100FAE94F

  Using        1 parallel tasks.
  Task        0 on host r18c26.bullx reporting.

  Performing system and environment tests:
  | Environment variable OMP_NUM_THREADS correctly set to 1.
  | Stacksize not measured: no C compiler
  | Checking for scalapack...
  | Testing pdtran()...
  | All pdtran() tests passed.

  Obtaining array dimensions for all initial allocations:
  
  -----------------------------------------------------------------------
  Parsing control.in (first pass over file, find array dimensions only).
  The contents of control.in will be repeated verbatim below
  unless switched off by setting 'verbatim_writeout .false.' .
  in the first line of control.in .
  -----------------------------------------------------------------------
  
  #########################################################################################
  #
  #  Volker Blum, FHI 2009 : Test run input file control.in for simple H2O
  #
  #########################################################################################
  #
  #  Physical model
  #
    xc                 pbe
    vdw_correction_hirshfeld
    spin               none
    relativistic       none
    charge             0.
  #
  #  SCF convergence
  #
    occupation_type    gaussian 0.01
    mixer              pulay
      n_max_pulay        10
      charge_mix_param   0.2
    sc_accuracy_rho    1E-5
    sc_accuracy_eev    1E-3
    sc_accuracy_etot   1E-6
    sc_accuracy_forces 1E-4
    sc_iter_limit      100
  #
  #  Relaxation
  #
  #  relax_geometry   bfgs 1.e-3
  #
  ################################################################################
  #
  #  FHI-aims code project
  #  VB, Fritz-Haber Institut, 2009
  #
  #  Suggested "light" defaults for H atom (to be pasted into control.in file)
  #  Be sure to double-check any results obtained with these settings for post-processing,
  #  e.g., with the "tight" defaults and larger basis sets.
  #
  ################################################################################
    species        H
  #     global species definitions
      nucleus             1
      mass                1.00794
  #
      l_hartree           4
  #
      cut_pot             3.5  1.5  1.0
      basis_dep_cutoff    1e-4
  #
      radial_base         24 5.0
      radial_multiplier   1
      angular_grids       specified
        division   0.2421   50
        division   0.3822  110
        division   0.4799  194
        division   0.5341  302
  #      division   0.5626  434
  #      division   0.5922  590
  #      division   0.6542  770
  #      division   0.6868 1202
  #      outer_grid  770
        outer_grid  302
  ################################################################################
  #
  #  Definition of "minimal" basis
  #
  ################################################################################
  #     valence basis states
      valence      1  s   1.
  #     ion occupancy
      ion_occ      1  s   0.5
  ################################################################################
  #
  #  Suggested additional basis functions. For production calculations,
  #  uncomment them one after another (the most important basis functions are
  #  listed first).
  #
  #  Basis constructed for dimers: 0.5 A, 0.7 A, 1.0 A, 1.5 A, 2.5 A
  #
  ################################################################################
  #  "First tier" - improvements: -1014.90 meV to -62.69 meV
       hydro 2 s 2.1
       hydro 2 p 3.5
  #  "Second tier" - improvements: -12.89 meV to -1.83 meV
  #     hydro 1 s 0.85
  #     hydro 2 p 3.7
  #     hydro 2 s 1.2
  #     hydro 3 d 7
  #  "Third tier" - improvements: -0.25 meV to -0.12 meV
  #     hydro 4 f 11.2
  #     hydro 3 p 4.8
  #     hydro 4 d 9
  #     hydro 3 s 3.2
  ################################################################################
  #
  #  FHI-aims code project
  #  VB, Fritz-Haber Institut, 2009
  #
  #  Suggested "light" defaults for C atom (to be pasted into control.in file)
  #  Be sure to double-check any results obtained with these settings for post-processing,
  #  e.g., with the "tight" defaults and larger basis sets.
  #
  ################################################################################
    species        C
  #     global species definitions
      nucleus             6
      mass                12.0107
  #
      l_hartree           4
  #
      cut_pot             3.5  1.5  1.0
      basis_dep_cutoff    1e-4
  #
      radial_base         34 5.0
      radial_multiplier   1
      angular_grids specified
        division   0.3326   50
        division   0.5710  110
        division   0.7727  194
        division   0.8772  302
  #      division   0.9334  434
  #      division   0.9625  590
  #      division   0.9924  770
  #      division   1.0230  974
  #      division   1.4589 1202
  #     outer_grid  974
       outer_grid 302
  ################################################################################
  #
  #  Definition of "minimal" basis
  #
  ################################################################################
  #     valence basis states
      valence      2  s   2.
      valence      2  p   2.
  #     ion occupancy
      ion_occ      2  s   1.
      ion_occ      2  p   1.
  ################################################################################
  #
  #  Suggested additional basis functions. For production calculations,
  #  uncomment them one after another (the most important basis functions are
  #  listed first).
  #
  #  Constructed for dimers: 1.0 A, 1.25 A, 1.5 A, 2.0 A, 3.0 A
  #
  ################################################################################
  #  "First tier" - improvements: -1214.57 meV to -155.61 meV
       hydro 2 p 1.7
       hydro 3 d 6
       hydro 2 s 4.9
  #  "Second tier" - improvements: -67.75 meV to -5.23 meV
  #     hydro 4 f 9.8
  #     hydro 3 p 5.2
  #     hydro 3 s 4.3
  #     hydro 5 g 14.4
  #     hydro 3 d 6.2
  #  "Third tier" - improvements: -2.43 meV to -0.60 meV
  #     hydro 2 p 5.6
  #     hydro 2 s 1.4
  #     hydro 3 d 4.9
  #     hydro 4 f 11.2
  #  "Fourth tier" - improvements: -0.39 meV to -0.18 meV
  #     hydro 2 p 2.1
  #     hydro 5 g 16.4
  #     hydro 4 d 13.2
  #     hydro 3 s 13.6
  #     hydro 4 f 17.6
  #  Further basis functions - improvements: -0.08 meV and below
  #     hydro 3 s 2
  #     hydro 3 p 6
  #     hydro 4 d 20
  ################################################################################
  #
  #  FHI-aims code project
  #  VB, Fritz-Haber Institut, 2009
  #
  #  Suggested "light" defaults for N atom (to be pasted into control.in file)
  #  Be sure to double-check any results obtained with these settings for post-processing,
  #  e.g., with the "tight" defaults and larger basis sets.
  #
  ################################################################################
    species        N
  #     global species definitions
      nucleus             7
      mass                14.0067
  #
      l_hartree           4
  #
      cut_pot             3.5  1.5  1.0
      basis_dep_cutoff    1e-4
  #
      radial_base         35 5.0
      radial_multiplier   1
      angular_grids       specified
        division   0.2599   50
        division   0.4601  110
        division   0.5885  194
        division   0.6503  302
  #      division   0.6939  434
  #      division   0.7396  590
  #      division   0.7632  770
  #      division   0.8122  974
  #      division   1.1604 1202
  #      outer_grid  974
        outer_grid  302
  ################################################################################
  #
  #  Definition of "minimal" basis
  #
  ################################################################################
  #     valence basis states
      valence      2  s   2.
      valence      2  p   3.
  #     ion occupancy
      ion_occ      2  s   1.
      ion_occ      2  p   2.
  ################################################################################
  #
  #  Suggested additional basis functions. For production calculations,
  #  uncomment them one after another (the most important basis functions are
  #  listed first).
  #
  #  Constructed for dimers: 1.0 A, 1.1 A, 1.5 A, 2.0 A, 3.0 A
  #
  ################################################################################
  #  "First tier" - improvements: -1193.42 meV to -220.60 meV
       hydro 2 p 1.8
       hydro 3 d 6.8
       hydro 3 s 5.8
  #  "Second tier" - improvements: -80.21 meV to -6.86 meV
  #     hydro 4 f 10.8
  #     hydro 3 p 5.8
  #     hydro 1 s 0.8
  #     hydro 5 g 16
  #     hydro 3 d 4.9
  #  "Third tier" - improvements: -4.29 meV to -0.53 meV
  #     hydro 3 s 16
  #     ionic 2 p auto
  #     hydro 3 d 6.6
  #     hydro 4 f 11.6
  #  "Fourth tier" - improvements: -0.75 meV to -0.25 meV
  #     hydro 2 p 4.5
  #     hydro 2 s 2.4
  #     hydro 5 g 14.4
  #     hydro 4 d 14.4
  #     hydro 4 f 16.8
  # Further basis functions - -0.21 meV and below
  #     hydro 3 p 14.8
  #     hydro 3 s 4.4
  #     hydro 3 d 19.6
  #     hydro 5 g 12.8
  ################################################################################
  #
  #  FHI-aims code project
  #  VB, Fritz-Haber Institut, 2009
  #
  #  Suggested "light" defaults for O atom (to be pasted into control.in file)
  #  Be sure to double-check any results obtained with these settings for post-processing,
  #  e.g., with the "tight" defaults and larger basis sets.
  #
  ################################################################################
    species        O
  #     global species definitions
      nucleus             8
      mass                15.9994
  #
      l_hartree           4
  #
      cut_pot             3.5  1.5  1.0
      basis_dep_cutoff    1e-4
  #
      radial_base         36 5.0
      radial_multiplier   1
       angular_grids specified
        division   0.2659   50
        division   0.4451  110
        division   0.6052  194
        division   0.7543  302
  #      division   0.8014  434
  #      division   0.8507  590
  #      division   0.8762  770
  #      division   0.9023  974
  #      division   1.2339 1202
  #      outer_grid 974
        outer_grid 302
  ################################################################################
  #
  #  Definition of "minimal" basis
  #
  ################################################################################
  #     valence basis states
      valence      2  s   2.
      valence      2  p   4.
  #     ion occupancy
      ion_occ      2  s   1.
      ion_occ      2  p   3.
  ################################################################################
  #
  #  Suggested additional basis functions. For production calculations,
  #  uncomment them one after another (the most important basis functions are
  #  listed first).
  #
  #  Constructed for dimers: 1.0 A, 1.208 A, 1.5 A, 2.0 A, 3.0 A
  #
  ################################################################################
  #  "First tier" - improvements: -699.05 meV to -159.38 meV
       hydro 2 p 1.8
       hydro 3 d 7.6
       hydro 3 s 6.4
  #  "Second tier" - improvements: -49.91 meV to -5.39 meV
  #     hydro 4 f 11.6
  #     hydro 3 p 6.2
  #     hydro 3 d 5.6
  #     hydro 5 g 17.6
  #     hydro 1 s 0.75
  #  "Third tier" - improvements: -2.83 meV to -0.50 meV
  #     ionic 2 p auto
  #     hydro 4 f 10.8
  #     hydro 4 d 4.7
  #     hydro 2 s 6.8
  #  "Fourth tier" - improvements: -0.40 meV to -0.12 meV
  #     hydro 3 p 5
  #     hydro 3 s 3.3
  #     hydro 5 g 15.6
  #     hydro 4 f 17.6
  #     hydro 4 d 14
  # Further basis functions - -0.08 meV and below
  #     hydro 3 s 2.1
  #     hydro 4 d 11.6
  #     hydro 3 p 16
  #     hydro 2 s 17.2
  
  -----------------------------------------------------------------------
  Completed first pass over input file control.in .
  -----------------------------------------------------------------------
  
  
  -----------------------------------------------------------------------
  Parsing geometry.in (first pass over file, find array dimensions only).
  The contents of geometry.in will be repeated verbatim below
  unless switched off by setting 'verbatim_writeout .false.' .
  in the first line of geometry.in .
  -----------------------------------------------------------------------
  
  atom  0.00000 0.00000 0.00000 C
  atom  1.09300 0.00000 0.00000 H
  atom  -0.47961 0.00000 -1.41207 N
  atom  -1.04530 0.83566 -1.56537 H
  atom  0.32805 0.00334 -2.03159 H
  atom  -0.49584 1.26211 0.72868 C
  atom  -1.58789 1.28919 0.74431 H
  atom  -0.13407 1.27425 1.75947 H
  atom  -0.13407 2.16087 0.22380 H
  atom  -0.39425 -1.28861 0.74398 C
  atom  -0.10189 -1.56493 1.88303 O
  atom  -1.10210 -2.13717 0.06896 O
  atom  -1.14952 -1.64723 -0.76930 H
  
  -----------------------------------------------------------------------
  Completed first pass over input file geometry.in .
  -----------------------------------------------------------------------
  

  Basic array size parameters:
  | Number of species                 :        4
  | Number of atoms                   :       13
  | Max. basis fn. angular momentum   :        2
  | Max. atomic/ionic basis occupied n:        2
  | Max. number of basis fn. types    :        2
  | Max. radial fns per species/type  :        3
  | Max. logarithmic grid size        :     1301
  | Max. radial integration grid size :       36
  | Max. angular integration grid size:      302
  | Max. angular grid division number :        8
  | Radial grid for Hartree potential :     1301
  | Number of spin channels           :        1

------------------------------------------------------------
          Reading file control.in.
------------------------------------------------------------
  XC: Using PBE gradient-corrected functionals.
  Spin treatment: No spin polarisation.
  Non-relativistic treatment of kinetic energy.
  Charge =   0.000000E+00: Neutral system requested explicitly.
  Occupation type: Gaussian broadening, width =   0.100000E-01 eV.
  Using pulay charge density mixing.
  Pulay mixing - number of memorized iterations:   10
  Charge density mixing - mixing parameter:     0.2000
  Convergence accuracy of self-consistent charge density:  0.1000E-04
  Convergence accuracy of sum of eigenvalues:  0.1000E-02
  Convergence accuracy of total energy:  0.1000E-05
  Convergence accuracy of forces:  0.1000E-03
  Maximum number of s.-c. iterations  :   100
 
  Reading configuration options for species H                   .
  | Found nuclear charge :   1.0000
  | Found atomic mass :    1.00794000000000      amu
  | Found l_max for Hartree potential  :   4
  | Found cutoff potl. onset [A], width [A], scale factor :    3.50000    1.50000    1.00000
  | Threshold for basis-dependent cutoff potential is   0.100000E-03
  | Found data for basic radial integration grid :    24 points, outermost radius =    5.000 A
  | Found multiplier for basic radial grid :   1
  | Found angular grid specification: user-specified.
  | Specified grid contains     5 separate shells.
  | Check grid settings after all constraints further below.
  | Found free-atom valence shell :  1 s   1.000
  | No ionic wave fns used. Skipping ion_occ.
  | Found hydrogenic basis function :  2 s   2.100
  | Found hydrogenic basis function :  2 p   3.500
  Species H                   : Missing cutoff potential type.
  Defaulting to exp(1/x)/(1-x)^2 type cutoff potential.
  Species H : No 'logarithmic' tag. Using default grid for free atom:
  | Default logarithmic grid data [bohr] : 0.1000E-03 0.1000E+03 0.1012E+01
  Species H : On-site basis accuracy parameter (for Gram-Schmidt orthonormalisation) not specified.
  Using default value basis_acc =  0.1000000E-03.
  Species H                   : Using default innermost maximum threshold i_radial=  2 for radial functions.
  Species H                   : Default cutoff onset for free atom density etc. : 0.35000000E+01 AA.
  Species H                   : Basic radial grid will be enhanced according to radial_multiplier =   1, to contain    24 grid points.
 
  Reading configuration options for species C                   .
  | Found nuclear charge :   6.0000
  | Found atomic mass :    12.0107000000000      amu
  | Found l_max for Hartree potential  :   4
  | Found cutoff potl. onset [A], width [A], scale factor :    3.50000    1.50000    1.00000
  | Threshold for basis-dependent cutoff potential is   0.100000E-03
  | Found data for basic radial integration grid :    34 points, outermost radius =    5.000 A
  | Found multiplier for basic radial grid :   1
  | Found angular grid specification: user-specified.
  | Specified grid contains     5 separate shells.
  | Check grid settings after all constraints further below.
  | Found free-atom valence shell :  2 s   2.000
  | Found free-atom valence shell :  2 p   2.000
  | No ionic wave fns used. Skipping ion_occ.
  | No ionic wave fns used. Skipping ion_occ.
  | Found hydrogenic basis function :  2 p   1.700
  | Found hydrogenic basis function :  3 d   6.000
  | Found hydrogenic basis function :  2 s   4.900
  Species C                   : Missing cutoff potential type.
  Defaulting to exp(1/x)/(1-x)^2 type cutoff potential.
  Species C : No 'logarithmic' tag. Using default grid for free atom:
  | Default logarithmic grid data [bohr] : 0.1000E-03 0.1000E+03 0.1012E+01
  Species C : On-site basis accuracy parameter (for Gram-Schmidt orthonormalisation) not specified.
  Using default value basis_acc =  0.1000000E-03.
  Species C                   : Using default innermost maximum threshold i_radial=  2 for radial functions.
  Species C                   : Default cutoff onset for free atom density etc. : 0.35000000E+01 AA.
  Species C                   : Basic radial grid will be enhanced according to radial_multiplier =   1, to contain    34 grid points.
 
  Reading configuration options for species N                   .
  | Found nuclear charge :   7.0000
  | Found atomic mass :    14.0067000000000      amu
  | Found l_max for Hartree potential  :   4
  | Found cutoff potl. onset [A], width [A], scale factor :    3.50000    1.50000    1.00000
  | Threshold for basis-dependent cutoff potential is   0.100000E-03
  | Found data for basic radial integration grid :    35 points, outermost radius =    5.000 A
  | Found multiplier for basic radial grid :   1
  | Found angular grid specification: user-specified.
  | Specified grid contains     5 separate shells.
  | Check grid settings after all constraints further below.
  | Found free-atom valence shell :  2 s   2.000
  | Found free-atom valence shell :  2 p   3.000
  | No ionic wave fns used. Skipping ion_occ.
  | No ionic wave fns used. Skipping ion_occ.
  | Found hydrogenic basis function :  2 p   1.800
  | Found hydrogenic basis function :  3 d   6.800
  | Found hydrogenic basis function :  3 s   5.800
  Species N                   : Missing cutoff potential type.
  Defaulting to exp(1/x)/(1-x)^2 type cutoff potential.
  Species N : No 'logarithmic' tag. Using default grid for free atom:
  | Default logarithmic grid data [bohr] : 0.1000E-03 0.1000E+03 0.1012E+01
  Species N : On-site basis accuracy parameter (for Gram-Schmidt orthonormalisation) not specified.
  Using default value basis_acc =  0.1000000E-03.
  Species N                   : Using default innermost maximum threshold i_radial=  2 for radial functions.
  Species N                   : Default cutoff onset for free atom density etc. : 0.35000000E+01 AA.
  Species N                   : Basic radial grid will be enhanced according to radial_multiplier =   1, to contain    35 grid points.
 
  Reading configuration options for species O                   .
  | Found nuclear charge :   8.0000
  | Found atomic mass :    15.9994000000000      amu
  | Found l_max for Hartree potential  :   4
  | Found cutoff potl. onset [A], width [A], scale factor :    3.50000    1.50000    1.00000
  | Threshold for basis-dependent cutoff potential is   0.100000E-03
  | Found data for basic radial integration grid :    36 points, outermost radius =    5.000 A
  | Found multiplier for basic radial grid :   1
  | Found angular grid specification: user-specified.
  | Specified grid contains     5 separate shells.
  | Check grid settings after all constraints further below.
  | Found free-atom valence shell :  2 s   2.000
  | Found free-atom valence shell :  2 p   4.000
  | No ionic wave fns used. Skipping ion_occ.
  | No ionic wave fns used. Skipping ion_occ.
  | Found hydrogenic basis function :  2 p   1.800
  | Found hydrogenic basis function :  3 d   7.600
  | Found hydrogenic basis function :  3 s   6.400
  Species O                   : Missing cutoff potential type.
  Defaulting to exp(1/x)/(1-x)^2 type cutoff potential.
  Species O : No 'logarithmic' tag. Using default grid for free atom:
  | Default logarithmic grid data [bohr] : 0.1000E-03 0.1000E+03 0.1012E+01
  Species O : On-site basis accuracy parameter (for Gram-Schmidt orthonormalisation) not specified.
  Using default value basis_acc =  0.1000000E-03.
  Species O                   : Using default innermost maximum threshold i_radial=  2 for radial functions.
  Species O                   : Default cutoff onset for free atom density etc. : 0.35000000E+01 AA.
  Species O                   : Basic radial grid will be enhanced according to radial_multiplier =   1, to contain    36 grid points.
 
  Finished reading input file 'control.in'. Consistency checks are next.
 
  MPI_IN_PLACE appears to work with this MPI implementation.
  | Keeping use_mpi_in_place .true. (see manual).
  Target number of points in a grid batch is not set. Defaulting to  100
  Method for grid partitioning is not set. Defaulting to parallel hash+maxmin partitioning.
  Batch size limit is not set. Defaulting to    200
  By default, will store active basis functions for each batch.
  If in need of memory, prune_basis_once .false. can be used to disable this option.
  communication_type for Hartree potential was not specified.
  Defaulting to calc_hartree .
  Pulay mixer: Number of initial linear mixing iterations not set.
  Defaulting to    0 iterations.
  Work space size for distributed Hartree potential not set.
  Defaulting to   0.200000E+03 MB.
  Algorithm-dependent basis array size parameters:
  | n_max_pulay                         :       10
  Presetting      1001 iterations before the initial mixing cycle
  is restarted anyway using the sc_init_iter criterion / keyword.
  Presetting a factor      1.000 between actual scf density residual
  and density convergence criterion sc_accuracy_rho below which sc_init_iter
  takes no effect.
  Geometry relaxation not requested: no relaxation will be performed.
  Handling of forces: Unphysical translation and rotation will be removed from forces.
  No accuracy limit for integral partition fn. given. Defaulting to  0.1000E-14.
  No threshold value for u(r) in integrations given. Defaulting to  0.1000E-05.
  No accuracy for occupation numbers given. Defaulting to  0.1000E-12.
  No threshold value for occupation numbers given. Defaulting to  0.0000E+00.
  No accuracy for fermi level given. Defaulting to  0.1000E-19.
  Maximum # of iterations to find E_F not set. Defaulting to  200.
  Preferred method for the eigenvalue solver ('KS_method') not specified in 'control.in'.
  Defaulting to serial version, 'lapack_fast'.
  Will not use alltoall communication since running on < 1024 CPUs.
  Threshold for basis singularities not set.
  Default threshold for basis singularities:  0.1000E-04
  partition_type (choice of integration weights) for integrals was not specified.
  | Using a version of the partition function of Stratmann and coworkers ('stratmann_smoother').
  | At each grid point, the set of atoms used to build the partition table is smoothly restricted to
  | only those atoms whose free-atom density would be non-zero at that grid point.
  Partitioning for Hartree potential was not defined. Using partition_type for integrals.
  | Adjusted default value of keyword multip_moments_threshold to:       0.10000000E-11
  | This value may affect high angular momentum components of the Hartree potential in periodic systems.
  No q(lm)/r^(l+1) cutoff set for long-range Hartree potential.
  | Using default value of  0.100000E-09 .
  | Verify using the multipole_threshold keyword.
  Defaulting to new monopole extrapolation.
  Density update method: automatic selection selected.
------------------------------------------------------------


------------------------------------------------------------
          Reading geometry description geometry.in.
------------------------------------------------------------
  Input structure read successfully.
  The structure contains       13 atoms,  and a total of         48.000 electrons.

  Input geometry:
  | No unit cell requested.
  | Atomic structure:
  |       Atom                x [A]            y [A]            z [A]
  |    1: Species C             0.00000000        0.00000000        0.00000000
  |    2: Species H             1.09300000        0.00000000        0.00000000
  |    3: Species N            -0.47961000        0.00000000       -1.41207000
  |    4: Species H            -1.04530000        0.83566000       -1.56537000
  |    5: Species H             0.32805000        0.00334000       -2.03159000
  |    6: Species C            -0.49584000        1.26211000        0.72868000
  |    7: Species H            -1.58789000        1.28919000        0.74431000
  |    8: Species H            -0.13407000        1.27425000        1.75947000
  |    9: Species H            -0.13407000        2.16087000        0.22380000
  |   10: Species C            -0.39425000       -1.28861000        0.74398000
  |   11: Species O            -0.10189000       -1.56493000        1.88303000
  |   12: Species O            -1.10210000       -2.13717000        0.06896000
  |   13: Species H            -1.14952000       -1.64723000       -0.76930000
  |

  | The smallest distance between any two atoms is         0.97209551 AA.
  |
  | The first atom of this pair is atom number                     12 .
  | The second atom of this pair is atom number                    13 .

  Number of empty states per atom not set in control.in - providing a guess from actual geometry.
  | Total number of empty states used during s.c.f. cycle:       29
  If you use a very high smearing, use empty_states (per atom!) in control.in to increase this value.

  Structure-dependent array size parameters: 
  | Maximum number of distinct radial functions  :       21
  | Maximum number of basis functions            :      119
  | Number of Kohn-Sham states (occupied + empty):       53
------------------------------------------------------------

------------------------------------------------------------
          Preparing all fixed parts of the calculation.
------------------------------------------------------------
  Determining machine precision:
    2.225073858507201E-308
  Setting up grids for atomic and cluster calculations.

  Creating wave function, potential, and density for free atoms.

  Species: H

  List of occupied orbitals and eigenvalues:
    n    l              occ      energy [Ha]    energy [eV]
    1    0           1.0000        -0.237589        -6.4651


  Species: C

  List of occupied orbitals and eigenvalues:
    n    l              occ      energy [Ha]    energy [eV]
    1    0           2.0000       -10.038835      -273.1706
    2    0           2.0000        -0.502696       -13.6791
    2    1           2.0000        -0.191971        -5.2238


  Species: N

  List of occupied orbitals and eigenvalues:
    n    l              occ      energy [Ha]    energy [eV]
    1    0           2.0000       -14.128000      -384.4424
    2    0           2.0000        -0.681077       -18.5330
    2    1           3.0000        -0.259788        -7.0692


  Species: O

  List of occupied orbitals and eigenvalues:
    n    l              occ      energy [Ha]    energy [eV]
    1    0           2.0000       -18.898188      -514.2459
    2    0           2.0000        -0.878505       -23.9053
    2    1           4.0000        -0.331779        -9.0282

  Creating fixed part of basis set: Ionic, confined, hydrogenic.
 
  H                    hydrogenic:
 
  List of hydrogenic basis orbitals: 
    n    l      effective z      eigenvalue [eV]  inner max. [A]     outer max. [A]     outer radius [A]   
    2    0         2.100000       -14.9728           0.193243           1.317208           4.583499
    2    1         3.500000       -41.6669           0.602369           0.602369           3.723403
 
 
  C                    hydrogenic:
 
  List of hydrogenic basis orbitals: 
    n    l      effective z      eigenvalue [eV]  inner max. [A]     outer max. [A]     outer radius [A]   
    2    1         1.700000        -9.7616           1.230570           1.230570           4.607917
    3    2         6.000000       -54.4224           0.792453           0.792453           3.883070
    2    0         4.900000       -81.6679           0.082559           0.562749           3.078220
 
 
  N                    hydrogenic:
 
  List of hydrogenic basis orbitals: 
    n    l      effective z      eigenvalue [eV]  inner max. [A]     outer max. [A]     outer radius [A]   
    2    1         1.800000       -10.9749           1.177451           1.177451           4.573712
    3    2         6.800000       -69.9026           0.704619           0.704619           3.538137
    3    0         5.800000       -50.8545           0.067388           1.191934           4.250239
 
 
  O                    hydrogenic:
 
  List of hydrogenic basis orbitals: 
    n    l      effective z      eigenvalue [eV]  inner max. [A]     outer max. [A]     outer radius [A]   
    2    1         1.800000       -10.9749           1.164242           1.164242           4.578029
    3    2         7.600000       -87.3180           0.624125           0.624125           3.251020
    3    0         6.400000       -61.9207           0.061167           1.081902           4.001998
 

  Adding cutoff potential to free-atom effective potential.
  Creating atomic-like basis functions for current effective potential.

  Species H                   :

  List of atomic basis orbitals and eigenvalues:
    n    l      energy [Ha]    energy [eV]    outer radius [A]
    1    0        -0.237589        -6.4651       4.527807


  Species C                   :

  List of atomic basis orbitals and eigenvalues:
    n    l      energy [Ha]    energy [eV]    outer radius [A]
    1    0       -10.038835      -273.1706       1.934409
    2    0        -0.502696       -13.6791       4.496620
    2    1        -0.191971        -5.2238       4.551928


  Species N                   :

  List of atomic basis orbitals and eigenvalues:
    n    l      energy [Ha]    energy [eV]    outer radius [A]
    1    0       -14.128000      -384.4424       1.637919
    2    0        -0.681077       -18.5330       4.463241
    2    1        -0.259788        -7.0692       4.518138


  Species O                   :

  List of atomic basis orbitals and eigenvalues:
    n    l      energy [Ha]    energy [eV]    outer radius [A]
    1    0       -18.898188      -514.2459       1.415765
    2    0        -0.878505       -23.9053       4.413171
    2    1        -0.331779        -9.0282       4.522403

  Assembling full basis from fixed parts.
  | Species H :   atomic orbital   1 s accepted.
  | Species H :    hydro orbital   2 s accepted.
  | Species H :    hydro orbital   2 p accepted.
  | Species C :   atomic orbital   1 s accepted.
  | Species C :    hydro orbital   2 s accepted.
  | Species C :   atomic orbital   2 s accepted.
  | Species C :   atomic orbital   2 p accepted.
  | Species C :    hydro orbital   2 p accepted.
  | Species C :    hydro orbital   3 d accepted.
  | Species N :   atomic orbital   1 s accepted.
  | Species N :    hydro orbital   3 s accepted.
  | Species N :   atomic orbital   2 s accepted.
  | Species N :   atomic orbital   2 p accepted.
  | Species N :    hydro orbital   2 p accepted.
  | Species N :    hydro orbital   3 d accepted.
  | Species O :   atomic orbital   1 s accepted.
  | Species O :    hydro orbital   3 s accepted.
  | Species O :   atomic orbital   2 s accepted.
  | Species O :   atomic orbital   2 p accepted.
  | Species O :    hydro orbital   2 p accepted.
  | Species O :    hydro orbital   3 d accepted.
 
  Basis size parameters after reduction:
  | Total number of radial functions:       21
  | Total number of basis functions :      119
 
  Per-task memory consumption for arrays in subroutine allocate_ext:
  |           5.250512MB.
  Testing on-site integration grid accuracy.
  |  Species  Function  <phi|h_atom|phi> (log., in eV)  <phi|h_atom|phi> (rad., in eV)
           1        1                 -6.4663192853                 -6.4651273558
           1        2                 13.7111246313                 13.7170609718
           1        3                 25.2673269279                 25.2674696378
           2        4               -273.1705927641               -273.1705631568
           2        5                -10.7109323383                -10.7107120029
           2        6                 17.4381822266                 17.4352413244
           2        7                 -5.2255326521                 -5.2270484734
           2        8                  8.6835629259                  8.6603288385
           2        9                 27.4952418996                 27.4953360207
           3       10               -384.4424306495               -384.4423701208
           3       11                 12.5842251816                 12.5842222903
           3       12                -15.7264628251                -15.7264433455
           3       13                 -7.0696854293                 -7.0701769954
           3       14                  8.8090390882                  8.7901077751
           3       15                 35.9586762123                 35.9588528632
           4       16               -514.2458688638               -514.2457643834
           4       17                 15.1795651126                 15.1795290741
           4       18                -21.5359799773                -21.5360846186
           4       19                 -9.0283069236                 -9.0284644067
           4       20                  8.3027758564                  8.2834874195
           4       21                 45.8339351984                 45.8338762259

  Preparing densities etc. for the partition functions (integrals / Hartree potential).

  Preparations completed.
  max(cpu_time)          :      0.143 s.
  Wall clock time (cpu1) :      0.144 s.
------------------------------------------------------------

------------------------------------------------------------
          Begin self-consistency loop: Initialization.

          Date     :  20200805, Time     :  190055.454
------------------------------------------------------------

  Initializing index lists of integration centers etc. from given atomic structure:
  | Number of centers in hartree potential         :        13
  | Number of centers in hartree multipole         :        13
  | Number of centers in electron density summation:        13
  | Number of centers in basis integrals           :        13
  | Number of centers in integrals                 :        13
  | Number of centers in hamiltonian               :        13
  Partitioning the integration grid into batches with parallel hashing+maxmin method.
  | Number of batches:      961
  | Maximal batch size:     139
  | Minimal batch size:      66
  | Average batch size:      72.472
  | Standard deviation of batch sizes:      16.845

  Integration load balanced across     1 MPI tasks.
  Work distribution over tasks is as follows:
  Task     0 has      69646 integration points.
  Initializing partition tables, free-atom densities, potentials, etc. across the integration grid (initialize_grid_storage).
  | initialize_grid_storage: Actual outermost partition radius vs. multipole_radius_free
  | (-- VB: in principle, multipole_radius_free should be larger, hence this output)
  | Species        1: Confinement radius =              4.999999999999999 AA, multipole_radius_free =              5.054417573612229 AA.
  | Species        1: outer_partition_radius set to              5.054417573612229 AA .
  | Species        2: Confinement radius =              4.999999999999999 AA, multipole_radius_free =              5.019602836301480 AA.
  | Species        2: outer_partition_radius set to              5.019602836301480 AA .
  | Species        3: Confinement radius =              4.999999999999999 AA, multipole_radius_free =              5.043624274424571 AA.
  | Species        3: outer_partition_radius set to              5.043624274424571 AA .
  | Species        4: Confinement radius =              4.999999999999999 AA, multipole_radius_free =              5.048384829883283 AA.
  | Species        4: outer_partition_radius set to              5.048384829883283 AA .
  | Original list of interatomic distances with          13 x         13 entries is created.
  | Net number of integration points:    69646
  | of which are non-zero points    :    59419
  Renormalizing the initial density to the exact electron count on the 3D integration grid.
  | Initial density: Formal number of electrons (from input files) :      48.0000000000
  | Integrated number of electrons on 3D grid     :      47.9999383771
  | Charge integration error                      :      -0.0000616229
  | Normalization factor for density and gradient :       1.0000012838
  Obtaining max. number of non-zero basis functions in each batch (get_n_compute_maxes).
  | Maximal number of non-zero basis functions:      119 in task     0
  Selecting the method for density update.
  Loop over occupied states selected for charge density update.
  Allocating        0.050 MB for KS_eigenvector
  Integrating Hamiltonian matrix: batch-based integration.
  Time summed over all CPUs for integration: real work        0.493 s, elapsed        0.493 s
  Integrating overlap matrix.
  Time summed over all CPUs for integration: real work        0.211 s, elapsed        0.211 s

  Updating Kohn-Sham eigenvalues and eigenvectors using ELSI and the ELPA eigensolver.
  Overlap matrix is nonsingular
  | Lowest eigenvalue of overlap  :  0.44E-02
  | Highest eigenvalue of overlap :  0.63E+01
  Finished singularity check of overlap matrix
  | Time :     0.002 s
  Finished Cholesky decomposition
  | Time :     0.000 s
  Finished transformation to standard eigenproblem
  | Time :     0.000 s
  Starting LAPACK eigensolver
  Finished solving standard eigenproblem
  | Time :     0.002 s
  Finished back-transformation of eigenvectors
  | Time :     0.000 s

  Obtaining occupation numbers and chemical potential using ELSI.
  | Chemical potential (Fermi level):    -9.92264827eV
  Writing Kohn-Sham eigenvalues.

  State    Occupation    Eigenvalue [Ha]    Eigenvalue [eV]
      1       2.00000         -19.007487         -517.22003
      2       2.00000         -18.977117         -516.39362
      3       2.00000         -14.247810         -387.70264
      4       2.00000         -10.166911         -276.65572
      5       2.00000         -10.142046         -275.97911
      6       2.00000         -10.131882         -275.70254
      7       2.00000          -1.181328          -32.14558
      8       2.00000          -1.101453          -29.97207
      9       2.00000          -0.994181          -27.05303
     10       2.00000          -0.859648          -23.39222
     11       2.00000          -0.756377          -20.58207
     12       2.00000          -0.680487          -18.51700
     13       2.00000          -0.627699          -17.08056
     14       2.00000          -0.617709          -16.80872
     15       2.00000          -0.591386          -16.09243
     16       2.00000          -0.557025          -15.15743
     17       2.00000          -0.550852          -14.98945
     18       2.00000          -0.527493          -14.35383
     19       2.00000          -0.520062          -14.15162
     20       2.00000          -0.494047          -13.44371
     21       2.00000          -0.473477          -12.88397
     22       2.00000          -0.428530          -11.66089
     23       2.00000          -0.423818          -11.53267
     24       2.00000          -0.385205          -10.48195
     25       0.00000          -0.148089           -4.02972
     26       0.00000          -0.063504           -1.72802
     27       0.00000          -0.029168           -0.79371
     28       0.00000          -0.009920           -0.26994
     29       0.00000           0.006724            0.18297
     30       0.00000           0.012662            0.34455
     31       0.00000           0.018902            0.51435
     32       0.00000           0.030039            0.81740
     33       0.00000           0.034096            0.92780
     34       0.00000           0.077114            2.09837
     35       0.00000           0.095173            2.58979
     36       0.00000           0.132236            3.59832
     37       0.00000           0.174911            4.75958
     38       0.00000           0.189356            5.15263
     39       0.00000           0.202682            5.51525
     40       0.00000           0.224904            6.11994
     41       0.00000           0.250070            6.80475
     42       0.00000           0.265564            7.22638
     43       0.00000           0.290467            7.90402
     44       0.00000           0.302205            8.22341
     45       0.00000           0.347700            9.46139
     46       0.00000           0.353419            9.61702
     47       0.00000           0.369131           10.04456
     48       0.00000           0.381873           10.39128
     49       0.00000           0.429660           11.69165
     50       0.00000           0.491072           13.36276
     51       0.00000           0.495888           13.49379
     52       0.00000           0.547525           14.89892
     53       0.00000           0.552210           15.02640

  Highest occupied state (VBM) at    -10.48195351 eV
  | Occupation number:      2.00000000

  Lowest unoccupied state (CBM) at    -4.02972032 eV
  | Occupation number:      0.00000000

  Overall HOMO-LUMO gap:      6.45223319 eV.
  Calculating total energy contributions from superposition of free atom densities.

  Total energy components:
  | Sum of eigenvalues            :        -188.88806414 Ha       -5139.90574068 eV
  | XC energy correction          :         -41.80310602 Ha       -1137.52039108 eV
  | XC potential correction       :          53.73985920 Ha        1462.33597176 eV
  | Free-atom electrostatic energy:        -146.82273530 Ha       -3995.24990350 eV
  | Hartree energy correction     :           0.00000000 Ha           0.00000000 eV
  | vdW energy correction         :           0.00000000 Ha           0.00000000 eV
  | Entropy correction            :           0.00000000 Ha           0.00000000 eV
  | ---------------------------
  | Total energy                  :        -323.77404625 Ha       -8810.34006350 eV
  | Total energy, T -> 0          :        -323.77404625 Ha       -8810.34006350 eV  <-- do not rely on this value for anything but (periodic) metals
  | Electronic free energy        :        -323.77404625 Ha       -8810.34006350 eV

  Derived energy quantities:
  | Kinetic energy                :         320.51260806 Ha        8721.59181494 eV
  | Electrostatic energy          :        -602.48354829 Ha      -16394.41148736 eV
  | Energy correction for multipole
  | error in Hartree potential    :           0.00000000 Ha           0.00000000 eV
  | Sum of eigenvalues per atom                           :        -395.37736467 eV
  | Total energy (T->0) per atom                          :        -677.71846642 eV  <-- do not rely on this value for anything but (periodic) metals
  | Electronic free energy per atom                       :        -677.71846642 eV
  Initialize hartree_potential_storage
  Max. number of atoms included in rho_multipole:           13

  End scf initialization - timings             :  max(cpu_time)    wall_clock(cpu1)
  | Time for scf. initialization               :        1.144 s           1.146 s
  | Boundary condition initialization          :        0.000 s           0.000 s
  | Integration                                :        0.704 s           0.705 s
  | Solution of K.-S. eqns.                    :        0.004 s           0.004 s
  | Grid partitioning                          :        0.110 s           0.110 s
  | Preloading free-atom quantities on grid    :        0.002 s           0.002 s
  | Free-atom superposition energy             :        0.084 s           0.084 s
  | Total energy evaluation                    :        0.000 s           0.001 s

  Partial memory accounting:
  | Current value for overall tracked memory usage on task 0  :           0.165 MB
  | Peak value for overall tracked memory usage on task 0     :           0.678 MB after allocating wave
  | Largest tracked array allocation on task 0 so far         :           0.132 MB  when allocating H_times_psi
  Note:  These values currently only include a subset of arrays which are explicitly tracked.
  The "true" memory usage will be greater.
------------------------------------------------------------

------------------------------------------------------------
          Begin self-consistency iteration #    1

  Date     :  20200805, Time     :  190056.600
------------------------------------------------------------
  Evaluating new KS density.
  Integration grid: deviation in total charge (<rho> - N_e) =  -1.421085E-14
  Pulay mixing of updated and previous charge densities.

  Evaluating partitioned Hartree potential by multipole expansion.
  | Analytical far-field extrapolation by fixed multipoles:
  | Hartree multipole sum: apparent total charge =  -0.159906E-03
  Summing up the Hartree potential.
  Time summed over all CPUs for potential: real work        0.279 s, elapsed        0.279 s
  | RMS charge density error from multipole expansion :   0.591502E-02

  Integrating Hamiltonian matrix: batch-based integration.
  Time summed over all CPUs for integration: real work        0.493 s, elapsed        0.493 s

  Updating Kohn-Sham eigenvalues and eigenvectors using ELSI and the ELPA eigensolver.
  Finished Cholesky decomposition
  | Time :     0.000 s
  Finished transformation to standard eigenproblem
  | Time :     0.000 s
  Starting LAPACK eigensolver
  Finished solving standard eigenproblem
  | Time :     0.002 s
  Finished back-transformation of eigenvectors
  | Time :     0.000 s

  Obtaining occupation numbers and chemical potential using ELSI.
  | Chemical potential (Fermi level):    -4.68542264eV
  Writing Kohn-Sham eigenvalues.

  State    Occupation    Eigenvalue [Ha]    Eigenvalue [eV]
      1       2.00000         -18.899671         -514.28623
      2       2.00000         -18.826468         -512.29426
      3       2.00000         -14.116123         -384.11925
      4       2.00000         -10.108983         -275.07941
      5       2.00000         -10.069353         -274.00105
      6       2.00000         -10.036163         -273.09788
      7       2.00000          -1.126534          -30.65455
      8       2.00000          -1.031347          -28.06438
      9       2.00000          -0.934471          -25.42825
     10       2.00000          -0.798729          -21.73453
     11       2.00000          -0.706191          -19.21643
     12       2.00000          -0.629847          -17.13900
     13       2.00000          -0.580629          -15.79972
     14       2.00000          -0.562444          -15.30488
     15       2.00000          -0.532523          -14.49069
     16       2.00000          -0.499023          -13.57911
     17       2.00000          -0.485840          -13.22039
     18       2.00000          -0.472210          -12.84948
     19       2.00000          -0.460085          -12.51954
     20       2.00000          -0.436769          -11.88509
     21       2.00000          -0.419947          -11.42734
     22       2.00000          -0.360043           -9.79726
     23       2.00000          -0.355864           -9.68354
     24       2.00000          -0.314758           -8.56500
     25       0.00000          -0.106381           -2.89477
     26       0.00000          -0.040725           -1.10818
     27       0.00000           0.009025            0.24557
     28       0.00000           0.015646            0.42575
     29       0.00000           0.040834            1.11114
     30       0.00000           0.044753            1.21779
     31       0.00000           0.051514            1.40176
     32       0.00000           0.062441            1.69910
     33       0.00000           0.070317            1.91343
     34       0.00000           0.115681            3.14784
     35       0.00000           0.132853            3.61510
     36       0.00000           0.163595            4.45165
     37       0.00000           0.206093            5.60808
     38       0.00000           0.215367            5.86044
     39       0.00000           0.230901            6.28313
     40       0.00000           0.257876            7.01717
     41       0.00000           0.282615            7.69035
     42       0.00000           0.297680            8.10029
     43       0.00000           0.323800            8.81105
     44       0.00000           0.343192            9.33872
     45       0.00000           0.382376           10.40499
     46       0.00000           0.396319           10.78438
     47       0.00000           0.406568           11.06327
     48       0.00000           0.421986           11.48282
     49       0.00000           0.464881           12.65006
     50       0.00000           0.521930           14.20243
     51       0.00000           0.525366           14.29594
     52       0.00000           0.578037           15.72919
     53       0.00000           0.589094           16.03006

  Highest occupied state (VBM) at     -8.56499760 eV
  | Occupation number:      2.00000000

  Lowest unoccupied state (CBM) at    -2.89476917 eV
  | Occupation number:      0.00000000

  Overall HOMO-LUMO gap:      5.67022843 eV.

  Total energy components:
  | Sum of eigenvalues            :        -185.52802851 Ha       -5048.47451930 eV
  | XC energy correction          :         -42.12763897 Ha       -1146.35138211 eV
  | XC potential correction       :          54.16191628 Ha        1473.82072929 eV
  | Free-atom electrostatic energy:        -146.82273530 Ha       -3995.24990350 eV
  | Hartree energy correction     :          -3.28417155 Ha         -89.36685494 eV
  | vdW energy correction         :           0.00000000 Ha           0.00000000 eV
  | Entropy correction            :           0.00000000 Ha           0.00000000 eV
  | ---------------------------
  | Total energy                  :        -323.60065805 Ha       -8805.62193057 eV
  | Total energy, T -> 0          :        -323.60065805 Ha       -8805.62193057 eV  <-- do not rely on this value for anything but (periodic) metals
  | Electronic free energy        :        -323.60065805 Ha       -8805.62193057 eV

  Derived energy quantities:
  | Kinetic energy                :         322.27718726 Ha        8769.60845820 eV
  | Electrostatic energy          :        -603.75020634 Ha      -16428.87900666 eV
  | Energy correction for multipole
  | error in Hartree potential    :           0.01177584 Ha           0.32043680 eV
  | Sum of eigenvalues per atom                           :        -388.34419379 eV
  | Total energy (T->0) per atom                          :        -677.35553312 eV  <-- do not rely on this value for anything but (periodic) metals
  | Electronic free energy per atom                       :        -677.35553312 eV

  Self-consistency convergence accuracy:
  | Change of charge density      :  0.5741E+00
  | Change of sum of eigenvalues  :  0.9143E+02 eV
  | Change of total energy        :  0.4718E+01 eV

  End self-consistency iteration #     1       :  max(cpu_time)    wall_clock(cpu1)
  | Time for this iteration                    :        1.181 s           1.182 s
  | Charge density update                      :        0.392 s           0.392 s
  | Density mixing                             :        0.005 s           0.005 s
  | Hartree multipole update                   :        0.009 s           0.009 s
  | Hartree multipole summation                :        0.280 s           0.280 s
  | Integration                                :        0.492 s           0.493 s
  | Solution of K.-S. eqns.                    :        0.002 s           0.002 s
  | Total energy evaluation                    :        0.000 s           0.000 s

  Partial memory accounting:
  | Current value for overall tracked memory usage on task 0  :           0.165 MB
  | Peak value for overall tracked memory usage on task 0     :           0.695 MB after allocating gradient_basis_wave
  | Largest tracked array allocation on task 0 so far         :           0.397 MB  when allocating gradient_basis_wave
  Note:  These values currently only include a subset of arrays which are explicitly tracked.
  The "true" memory usage will be greater.
------------------------------------------------------------

------------------------------------------------------------
          Begin self-consistency iteration #    2

  Date     :  20200805, Time     :  190057.783
------------------------------------------------------------
  Evaluating new KS density.
  Integration grid: deviation in total charge (<rho> - N_e) =   4.263256E-14
  Pulay mixing of updated and previous charge densities.

  Evaluating partitioned Hartree potential by multipole expansion.
  | Analytical far-field extrapolation by fixed multipoles:
  | Hartree multipole sum: apparent total charge =  -0.287168E-03
  Summing up the Hartree potential.
  Time summed over all CPUs for potential: real work        0.280 s, elapsed        0.280 s
  | RMS charge density error from multipole expansion :   0.141541E-01

  Integrating Hamiltonian matrix: batch-based integration.
  Time summed over all CPUs for integration: real work        0.493 s, elapsed        0.493 s

  Updating Kohn-Sham eigenvalues and eigenvectors using ELSI and the ELPA eigensolver.
  Finished Cholesky decomposition
  | Time :     0.000 s
  Finished transformation to standard eigenproblem
  | Time :     0.000 s
  Starting LAPACK eigensolver
  Finished solving standard eigenproblem
  | Time :     0.002 s
  Finished back-transformation of eigenvectors
  | Time :     0.000 s

  Obtaining occupation numbers and chemical potential using ELSI.
  | Chemical potential (Fermi level):    -3.37722112eV
  Highest occupied state (VBM) at     -6.59886032 eV
  | Occupation number:      2.00000000

  Lowest unoccupied state (CBM) at    -1.46245183 eV
  | Occupation number:      0.00000000

  Overall HOMO-LUMO gap:      5.13640849 eV.

  Checking to see if s.c.f. parameters should be adjusted.

  Total energy components:
  | Sum of eigenvalues            :        -181.93913616 Ha       -4950.81578958 eV
  | XC energy correction          :         -42.48686325 Ha       -1156.12637217 eV
  | XC potential correction       :          54.62755718 Ha        1486.49146274 eV
  | Free-atom electrostatic energy:        -146.82273530 Ha       -3995.24990350 eV
  | Hartree energy correction     :          -6.90331049 Ha        -187.84863604 eV
  | vdW energy correction         :           0.00000000 Ha           0.00000000 eV
  | Entropy correction            :           0.00000000 Ha           0.00000000 eV
  | ---------------------------
  | Total energy                  :        -323.52448802 Ha       -8803.54923855 eV
  | Total energy, T -> 0          :        -323.52448802 Ha       -8803.54923855 eV  <-- do not rely on this value for anything but (periodic) metals
  | Electronic free energy        :        -323.52448802 Ha       -8803.54923855 eV

  Derived energy quantities:
  | Kinetic energy                :         323.60165649 Ha        8805.64909967 eV
  | Electrostatic energy          :        -604.63928126 Ha      -16453.07196606 eV
  | Energy correction for multipole
  | error in Hartree potential    :           0.02595367 Ha           0.70623524 eV
  | Sum of eigenvalues per atom                           :        -380.83198381 eV
  | Total energy (T->0) per atom                          :        -677.19609527 eV  <-- do not rely on this value for anything but (periodic) metals
  | Electronic free energy per atom                       :        -677.19609527 eV

  Self-consistency convergence accuracy:
  | Change of charge density      :  0.3585E+00
  | Change of sum of eigenvalues  :  0.9766E+02 eV
  | Change of total energy        :  0.2073E+01 eV

  End self-consistency iteration #     2       :  max(cpu_time)    wall_clock(cpu1)
  | Time for this iteration                    :        1.175 s           1.181 s
  | Charge density update                      :        0.385 s           0.391 s
  | Density mixing                             :        0.007 s           0.006 s
  | Hartree multipole update                   :        0.009 s           0.009 s
  | Hartree multipole summation                :        0.280 s           0.280 s
  | Integration                                :        0.493 s           0.493 s
  | Solution of K.-S. eqns.                    :        0.002 s           0.002 s
  | Total energy evaluation                    :        0.000 s           0.000 s

  Partial memory accounting:
  | Current value for overall tracked memory usage on task 0  :           0.166 MB
  | Peak value for overall tracked memory usage on task 0     :           0.695 MB after allocating gradient_basis_wave
  | Largest tracked array allocation on task 0 so far         :           0.397 MB  when allocating gradient_basis_wave
  Note:  These values currently only include a subset of arrays which are explicitly tracked.
  The "true" memory usage will be greater.
------------------------------------------------------------

------------------------------------------------------------
          Begin self-consistency iteration #    3

  Date     :  20200805, Time     :  190058.965
------------------------------------------------------------
  Evaluating new KS density.
  Integration grid: deviation in total charge (<rho> - N_e) =   2.131628E-14
  Pulay mixing of updated and previous charge densities.

  Evaluating partitioned Hartree potential by multipole expansion.
  | Analytical far-field extrapolation by fixed multipoles:
  | Hartree multipole sum: apparent total charge =  -0.379771E-03
  Summing up the Hartree potential.
  Time summed over all CPUs for potential: real work        0.280 s, elapsed        0.280 s
  | RMS charge density error from multipole expansion :   0.224389E-01

  Integrating Hamiltonian matrix: batch-based integration.
  Time summed over all CPUs for integration: real work        0.493 s, elapsed        0.493 s

  Updating Kohn-Sham eigenvalues and eigenvectors using ELSI and the ELPA eigensolver.
  Finished Cholesky decomposition
  | Time :     0.000 s
  Finished transformation to standard eigenproblem
  | Time :     0.000 s
  Starting LAPACK eigensolver
  Finished solving standard eigenproblem
  | Time :     0.001 s
  Finished back-transformation of eigenvectors
  | Time :     0.000 s

  Obtaining occupation numbers and chemical potential using ELSI.
  | Chemical potential (Fermi level):    -2.66211574eV
  Highest occupied state (VBM) at     -5.93563072 eV
  | Occupation number:      2.00000000

  Lowest unoccupied state (CBM) at    -0.69602935 eV
  | Occupation number:      0.00000000

  Overall HOMO-LUMO gap:      5.23960137 eV.

  Total energy components:
  | Sum of eigenvalues            :        -180.57318671 Ha       -4913.64641398 eV
  | XC energy correction          :         -42.64115878 Ha       -1160.32496721 eV
  | XC potential correction       :          54.82439512 Ha        1491.84769547 eV
  | Free-atom electrostatic energy:        -146.82273530 Ha       -3995.24990350 eV
  | Hartree energy correction     :          -8.29967012 Ha        -225.84551496 eV
  | vdW energy correction         :           0.00000000 Ha           0.00000000 eV
  | Entropy correction            :           0.00000000 Ha           0.00000000 eV
  | ---------------------------
  | Total energy                  :        -323.51235580 Ha       -8803.21910418 eV
  | Total energy, T -> 0          :        -323.51235580 Ha       -8803.21910418 eV  <-- do not rely on this value for anything but (periodic) metals
  | Electronic free energy        :        -323.51235580 Ha       -8803.21910418 eV

  Derived energy quantities:
  | Kinetic energy                :         323.20141999 Ha        8794.75811035 eV
  | Electrostatic energy          :        -604.07261701 Ha      -16437.65224731 eV
  | Energy correction for multipole
  | error in Hartree potential    :           0.03650973 Ha           0.99348037 eV
  | Sum of eigenvalues per atom                           :        -377.97280108 eV
  | Total energy (T->0) per atom                          :        -677.17070032 eV  <-- do not rely on this value for anything but (periodic) metals
  | Electronic free energy per atom                       :        -677.17070032 eV

  Self-consistency convergence accuracy:
  | Change of charge density      :  0.1987E+00
  | Change of sum of eigenvalues  :  0.3717E+02 eV
  | Change of total energy        :  0.3301E+00 eV

  End self-consistency iteration #     3       :  max(cpu_time)    wall_clock(cpu1)
  | Time for this iteration                    :        1.176 s           1.177 s
  | Charge density update                      :        0.384 s           0.385 s
  | Density mixing                             :        0.008 s           0.008 s
  | Hartree multipole update                   :        0.009 s           0.009 s
  | Hartree multipole summation                :        0.280 s           0.280 s
  | Integration                                :        0.492 s           0.493 s
  | Solution of K.-S. eqns.                    :        0.002 s           0.002 s
  | Total energy evaluation                    :        0.000 s           0.000 s

  Partial memory accounting:
  | Current value for overall tracked memory usage on task 0  :           0.166 MB
  | Peak value for overall tracked memory usage on task 0     :           0.695 MB after allocating gradient_basis_wave
  | Largest tracked array allocation on task 0 so far         :           0.397 MB  when allocating gradient_basis_wave
  Note:  These values currently only include a subset of arrays which are explicitly tracked.
  The "true" memory usage will be greater.
------------------------------------------------------------

------------------------------------------------------------
          Begin self-consistency iteration #    4

  Date     :  20200805, Time     :  190100.143
------------------------------------------------------------
  Evaluating new KS density.
  Integration grid: deviation in total charge (<rho> - N_e) =  -4.973799E-14
  Pulay mixing of updated and previous charge densities.

  Evaluating partitioned Hartree potential by multipole expansion.
  | Analytical far-field extrapolation by fixed multipoles:
  | Hartree multipole sum: apparent total charge =  -0.409747E-03
  Summing up the Hartree potential.
  Time summed over all CPUs for potential: real work        0.280 s, elapsed        0.280 s
  | RMS charge density error from multipole expansion :   0.259159E-01

  Integrating Hamiltonian matrix: batch-based integration.
  Time summed over all CPUs for integration: real work        0.491 s, elapsed        0.491 s

  Updating Kohn-Sham eigenvalues and eigenvectors using ELSI and the ELPA eigensolver.
  Finished Cholesky decomposition
  | Time :     0.000 s
  Finished transformation to standard eigenproblem
  | Time :     0.000 s
  Starting LAPACK eigensolver
  Finished solving standard eigenproblem
  | Time :     0.002 s
  Finished back-transformation of eigenvectors
  | Time :     0.000 s

  Obtaining occupation numbers and chemical potential using ELSI.
  | Chemical potential (Fermi level):    -2.56907301eV
  Highest occupied state (VBM) at     -5.64513641 eV
  | Occupation number:      2.00000000

  Lowest unoccupied state (CBM) at    -0.62963992 eV
  | Occupation number:      0.00000000

  Overall HOMO-LUMO gap:      5.01549649 eV.

  Total energy components:
  | Sum of eigenvalues            :        -180.49307465 Ha       -4911.46645377 eV
  | XC energy correction          :         -42.67337509 Ha       -1161.20161736 eV
  | XC potential correction       :          54.86464706 Ha        1492.94300659 eV
  | Free-atom electrostatic energy:        -146.82273530 Ha       -3995.24990350 eV
  | Hartree energy correction     :          -8.38688258 Ha        -228.21868669 eV
  | vdW energy correction         :           0.00000000 Ha           0.00000000 eV
  | Entropy correction            :           0.00000000 Ha           0.00000000 eV
  | ---------------------------
  | Total energy                  :        -323.51142055 Ha       -8803.19365474 eV
  | Total energy, T -> 0          :        -323.51142055 Ha       -8803.19365474 eV  <-- do not rely on this value for anything but (periodic) metals
  | Electronic free energy        :        -323.51142055 Ha       -8803.19365474 eV

  Derived energy quantities:
  | Kinetic energy                :         322.78380102 Ha        8783.39411988 eV
  | Electrostatic energy          :        -603.62184648 Ha      -16425.38615725 eV
  | Energy correction for multipole
  | error in Hartree potential    :           0.04027476 Ha           1.09593195 eV
  | Sum of eigenvalues per atom                           :        -377.80511183 eV
  | Total energy (T->0) per atom                          :        -677.16874267 eV  <-- do not rely on this value for anything but (periodic) metals
  | Electronic free energy per atom                       :        -677.16874267 eV

  Self-consistency convergence accuracy:
  | Change of charge density      :  0.6379E-01
  | Change of sum of eigenvalues  :  0.2180E+01 eV
  | Change of total energy        :  0.2545E-01 eV

  End self-consistency iteration #     4       :  max(cpu_time)    wall_clock(cpu1)
  | Time for this iteration                    :        1.175 s           1.176 s
  | Charge density update                      :        0.385 s           0.385 s
  | Density mixing                             :        0.009 s           0.009 s
  | Hartree multipole update                   :        0.009 s           0.009 s
  | Hartree multipole summation                :        0.280 s           0.280 s
  | Integration                                :        0.490 s           0.491 s
  | Solution of K.-S. eqns.                    :        0.002 s           0.002 s
  | Total energy evaluation                    :        0.000 s           0.000 s

  Partial memory accounting:
  | Current value for overall tracked memory usage on task 0  :           0.166 MB
  | Peak value for overall tracked memory usage on task 0     :           0.696 MB after allocating gradient_basis_wave
  | Largest tracked array allocation on task 0 so far         :           0.397 MB  when allocating gradient_basis_wave
  Note:  These values currently only include a subset of arrays which are explicitly tracked.
  The "true" memory usage will be greater.
------------------------------------------------------------

------------------------------------------------------------
          Begin self-consistency iteration #    5

  Date     :  20200805, Time     :  190101.320
------------------------------------------------------------
  Evaluating new KS density.
  Integration grid: deviation in total charge (<rho> - N_e) =   6.394885E-14
  Pulay mixing of updated and previous charge densities.

  Evaluating partitioned Hartree potential by multipole expansion.
  | Analytical far-field extrapolation by fixed multipoles:
  | Hartree multipole sum: apparent total charge =  -0.405597E-03
  Summing up the Hartree potential.
  Time summed over all CPUs for potential: real work        0.280 s, elapsed        0.280 s
  | RMS charge density error from multipole expansion :   0.256569E-01

  Integrating Hamiltonian matrix: batch-based integration.
  Time summed over all CPUs for integration: real work        0.492 s, elapsed        0.492 s

  Updating Kohn-Sham eigenvalues and eigenvectors using ELSI and the ELPA eigensolver.
  Finished Cholesky decomposition
  | Time :     0.000 s
  Finished transformation to standard eigenproblem
  | Time :     0.000 s
  Starting LAPACK eigensolver
  Finished solving standard eigenproblem
  | Time :     0.001 s
  Finished back-transformation of eigenvectors
  | Time :     0.000 s

  Obtaining occupation numbers and chemical potential using ELSI.
  | Chemical potential (Fermi level):    -2.61045607eV
  Highest occupied state (VBM) at     -5.76409159 eV
  | Occupation number:      2.00000000

  Lowest unoccupied state (CBM) at    -0.68633925 eV
  | Occupation number:      0.00000000

  Overall HOMO-LUMO gap:      5.07775234 eV.

  Total energy components:
  | Sum of eigenvalues            :        -180.61713456 Ha       -4914.84229581 eV
  | XC energy correction          :         -42.65687328 Ha       -1160.75258038 eV
  | XC potential correction       :          54.84327762 Ha        1492.36151452 eV
  | Free-atom electrostatic energy:        -146.82273530 Ha       -3995.24990350 eV
  | Hartree energy correction     :          -8.25765806 Ha        -224.70230855 eV
  | vdW energy correction         :           0.00000000 Ha           0.00000000 eV
  | Entropy correction            :           0.00000000 Ha           0.00000000 eV
  | ---------------------------
  | Total energy                  :        -323.51112358 Ha       -8803.18557372 eV
  | Total energy, T -> 0          :        -323.51112358 Ha       -8803.18557372 eV  <-- do not rely on this value for anything but (periodic) metals
  | Electronic free energy        :        -323.51112358 Ha       -8803.18557372 eV

  Derived energy quantities:
  | Kinetic energy                :         322.72226285 Ha        8781.71958109 eV
  | Electrostatic energy          :        -603.57651315 Ha      -16424.15257443 eV
  | Energy correction for multipole
  | error in Hartree potential    :           0.03972730 Ha           1.08103495 eV
  | Sum of eigenvalues per atom                           :        -378.06479199 eV
  | Total energy (T->0) per atom                          :        -677.16812106 eV  <-- do not rely on this value for anything but (periodic) metals
  | Electronic free energy per atom                       :        -677.16812106 eV

  Self-consistency convergence accuracy:
  | Change of charge density      :  0.2261E-01
  | Change of sum of eigenvalues  : -0.3376E+01 eV
  | Change of total energy        :  0.8081E-02 eV

  End self-consistency iteration #     5       :  max(cpu_time)    wall_clock(cpu1)
  | Time for this iteration                    :        1.178 s           1.179 s
  | Charge density update                      :        0.385 s           0.385 s
  | Density mixing                             :        0.010 s           0.011 s
  | Hartree multipole update                   :        0.009 s           0.008 s
  | Hartree multipole summation                :        0.280 s           0.281 s
  | Integration                                :        0.491 s           0.491 s
  | Solution of K.-S. eqns.                    :        0.002 s           0.003 s
  | Total energy evaluation                    :        0.000 s           0.000 s

  Partial memory accounting:
  | Current value for overall tracked memory usage on task 0  :           0.166 MB
  | Peak value for overall tracked memory usage on task 0     :           0.696 MB after allocating gradient_basis_wave
  | Largest tracked array allocation on task 0 so far         :           0.397 MB  when allocating gradient_basis_wave
  Note:  These values currently only include a subset of arrays which are explicitly tracked.
  The "true" memory usage will be greater.
------------------------------------------------------------

------------------------------------------------------------
          Begin self-consistency iteration #    6

  Date     :  20200805, Time     :  190102.499
------------------------------------------------------------
  Evaluating new KS density.
  Integration grid: deviation in total charge (<rho> - N_e) =   2.131628E-14
  Pulay mixing of updated and previous charge densities.

  Evaluating partitioned Hartree potential by multipole expansion.
  | Analytical far-field extrapolation by fixed multipoles:
  | Hartree multipole sum: apparent total charge =  -0.406790E-03
  Summing up the Hartree potential.
  Time summed over all CPUs for potential: real work        0.280 s, elapsed        0.280 s
  | RMS charge density error from multipole expansion :   0.259049E-01

  Integrating Hamiltonian matrix: batch-based integration.
  Time summed over all CPUs for integration: real work        0.492 s, elapsed        0.492 s

  Updating Kohn-Sham eigenvalues and eigenvectors using ELSI and the ELPA eigensolver.
  Finished Cholesky decomposition
  | Time :     0.000 s
  Finished transformation to standard eigenproblem
  | Time :     0.000 s
  Starting LAPACK eigensolver
  Finished solving standard eigenproblem
  | Time :     0.001 s
  Finished back-transformation of eigenvectors
  | Time :     0.000 s

  Obtaining occupation numbers and chemical potential using ELSI.
  | Chemical potential (Fermi level):    -2.63380253eV
  Highest occupied state (VBM) at     -5.80669408 eV
  | Occupation number:      2.00000000

  Lowest unoccupied state (CBM) at    -0.72845537 eV
  | Occupation number:      0.00000000

  Overall HOMO-LUMO gap:      5.07823871 eV.

  Total energy components:
  | Sum of eigenvalues            :        -180.68621076 Ha       -4916.72195483 eV
  | XC energy correction          :         -42.64747498 Ha       -1160.49683975 eV
  | XC potential correction       :          54.83108457 Ha        1492.02972478 eV
  | Free-atom electrostatic energy:        -146.82273530 Ha       -3995.24990350 eV
  | Hartree energy correction     :          -8.18570238 Ha        -222.74429478 eV
  | vdW energy correction         :           0.00000000 Ha           0.00000000 eV
  | Entropy correction            :           0.00000000 Ha           0.00000000 eV
  | ---------------------------
  | Total energy                  :        -323.51103885 Ha       -8803.18326808 eV
  | Total energy, T -> 0          :        -323.51103885 Ha       -8803.18326808 eV  <-- do not rely on this value for anything but (periodic) metals
  | Electronic free energy        :        -323.51103885 Ha       -8803.18326808 eV

  Derived energy quantities:
  | Kinetic energy                :         322.62139948 Ha        8778.97494908 eV
  | Electrostatic energy          :        -603.48496334 Ha      -16421.66137741 eV
  | Energy correction for multipole
  | error in Hartree potential    :           0.03967745 Ha           1.07967835 eV
  | Sum of eigenvalues per atom                           :        -378.20938114 eV
  | Total energy (T->0) per atom                          :        -677.16794370 eV  <-- do not rely on this value for anything but (periodic) metals
  | Electronic free energy per atom                       :        -677.16794370 eV

  Self-consistency convergence accuracy:
  | Change of charge density      :  0.1116E-01
  | Change of sum of eigenvalues  : -0.1880E+01 eV
  | Change of total energy        :  0.2306E-02 eV

  End self-consistency iteration #     6       :  max(cpu_time)    wall_clock(cpu1)
  | Time for this iteration                    :        1.179 s           1.181 s
  | Charge density update                      :        0.385 s           0.386 s
  | Density mixing                             :        0.012 s           0.012 s
  | Hartree multipole update                   :        0.009 s           0.008 s
  | Hartree multipole summation                :        0.280 s           0.280 s
  | Integration                                :        0.492 s           0.493 s
  | Solution of K.-S. eqns.                    :        0.002 s           0.002 s
  | Total energy evaluation                    :        0.000 s           0.000 s

  Partial memory accounting:
  | Current value for overall tracked memory usage on task 0  :           0.166 MB
  | Peak value for overall tracked memory usage on task 0     :           0.696 MB after allocating gradient_basis_wave
  | Largest tracked array allocation on task 0 so far         :           0.397 MB  when allocating gradient_basis_wave
  Note:  These values currently only include a subset of arrays which are explicitly tracked.
  The "true" memory usage will be greater.
------------------------------------------------------------

------------------------------------------------------------
          Begin self-consistency iteration #    7

  Date     :  20200805, Time     :  190103.681
------------------------------------------------------------
  Evaluating new KS density.
  Integration grid: deviation in total charge (<rho> - N_e) =  -2.131628E-14
  Pulay mixing of updated and previous charge densities.

  Evaluating partitioned Hartree potential by multipole expansion.
  | Analytical far-field extrapolation by fixed multipoles:
  | Hartree multipole sum: apparent total charge =  -0.408576E-03
  Summing up the Hartree potential.
  Time summed over all CPUs for potential: real work        0.280 s, elapsed        0.280 s
  | RMS charge density error from multipole expansion :   0.260708E-01

  Integrating Hamiltonian matrix: batch-based integration.
  Time summed over all CPUs for integration: real work        0.490 s, elapsed        0.490 s

  Updating Kohn-Sham eigenvalues and eigenvectors using ELSI and the ELPA eigensolver.
  Finished Cholesky decomposition
  | Time :     0.000 s
  Finished transformation to standard eigenproblem
  | Time :     0.000 s
  Starting LAPACK eigensolver
  Finished solving standard eigenproblem
  | Time :     0.001 s
  Finished back-transformation of eigenvectors
  | Time :     0.000 s

[...]
  |   Hirshfeld dipole moment :      0.06570603
  |   Hirshfeld second moments:     -0.00534683      -0.02456686      -0.01496635
  |                                 -0.02456686      -0.03057589       0.00562283
  |                                 -0.01496635       0.00562283      -0.02617690
  ----------------------------------------------------------------------
  | Atom    12: O
  |   Hirshfeld charge        :     -0.15431712
  |   Free atom volume        :     23.61338643
  |   Hirshfeld volume        :     21.30163097
  |   Hirshfeld dipole vector :      0.01589976       0.03848005      -0.01095054
  |   Hirshfeld dipole moment :      0.04305149
  |   Hirshfeld second moments:      0.05102656      -0.01110338       0.01206164
  |                                 -0.01110338       0.02326424       0.01078411
  |                                  0.01206164       0.01078411       0.07063497
  ----------------------------------------------------------------------
  | Atom    13: H
  |   Hirshfeld charge        :      0.11311313
  |   Free atom volume        :      9.95071624
  |   Hirshfeld volume        :      7.27600028
  |   Hirshfeld dipole vector :     -0.02084425       0.00047738      -0.05852415
  |   Hirshfeld dipole moment :      0.06212719
  |   Hirshfeld second moments:      0.10150647      -0.00902092       0.00535447
  |                                 -0.00902092       0.06223848       0.03469688
  |                                  0.00535447       0.03469688       0.06918700
  ----------------------------------------------------------------------


  Total energy components:
  | Sum of eigenvalues            :        -180.67164931 Ha       -4916.32571763 eV
  | XC energy correction          :         -42.64609456 Ha       -1160.45927654 eV
  | XC potential correction       :          54.82937216 Ha        1491.98312778 eV
  | Free-atom electrostatic energy:        -146.82273530 Ha       -3995.24990350 eV
  | Hartree energy correction     :          -8.19991402 Ha        -223.13101334 eV
  | vdW energy correction         :          -0.00345201 Ha          -0.09393402 eV
  | Entropy correction            :           0.00000000 Ha           0.00000000 eV
  | ---------------------------
  | Total energy                  :        -323.51447304 Ha       -8803.27671724 eV
  | Total energy, T -> 0          :        -323.51447304 Ha       -8803.27671724 eV  <-- do not rely on this value for anything but (periodic) metals
  | Electronic free energy        :        -323.51447304 Ha       -8803.27671724 eV

  Derived energy quantities:
  | Kinetic energy                :         322.58503561 Ha        8777.98543790 eV
  | Electrostatic energy          :        -603.44996208 Ha      -16420.70894459 eV
  | Energy correction for multipole
  | error in Hartree potential    :           0.03972322 Ha           1.08092373 eV
  | Sum of eigenvalues per atom                           :        -378.17890136 eV
  | Total energy (T->0) per atom                          :        -677.17513210 eV  <-- do not rely on this value for anything but (periodic) metals
  | Electronic free energy per atom                       :        -677.17513210 eV

  atomic forces [eV/Ang]:
  -----------------------
  atom #    1
   Hellmann-Feynman              :  0.880476E+00  0.126668E+00  0.175795E+01
   Ionic forces                  :  0.000000E+00  0.000000E+00  0.000000E+00
   Multipole                     :  0.680829E-01  0.403951E+00 -0.290385E+00
   Pulay + GGA                   : -0.983377E+00  0.180627E+00 -0.156355E+01
   Van der Waals                 :  0.199952E-02  0.711924E-03 -0.108125E-02
   ----------------------------------------------------------------
   Total forces(   1)            : -0.328194E-01  0.711957E+00 -0.970686E-01
  atom #    2
   Hellmann-Feynman              :  0.248893E+00 -0.921223E-02  0.227580E-01
   Ionic forces                  :  0.000000E+00  0.000000E+00  0.000000E+00
   Multipole                     :  0.181246E+00  0.374634E-01  0.151681E-01
   Pulay + GGA                   : -0.132418E+00  0.700241E-02  0.581373E-01
   Van der Waals                 :  0.492719E-02 -0.428644E-02 -0.621429E-02
   ----------------------------------------------------------------
   Total forces(   2)            :  0.302648E+00  0.309671E-01  0.898491E-01
  atom #    3
   Hellmann-Feynman              : -0.554190E+01 -0.916639E+01  0.164225E+00
   Ionic forces                  :  0.000000E+00  0.000000E+00  0.000000E+00
   Multipole                     : -0.145779E+00  0.147946E+00 -0.855859E+00
   Pulay + GGA                   :  0.570034E+01  0.847938E+01  0.135466E+01
   Van der Waals                 :  0.358076E-02 -0.522246E-02 -0.909591E-02
   ----------------------------------------------------------------
   Total forces(   3)            :  0.162477E-01 -0.544288E+00  0.653931E+00
  atom #    4
   Hellmann-Feynman              :  0.715330E-01  0.105042E+00 -0.219512E+00
   Ionic forces                  :  0.000000E+00  0.000000E+00  0.000000E+00
   Multipole                     : -0.805281E-01  0.613054E-01 -0.879227E-01
   Pulay + GGA                   :  0.733881E-01 -0.222918E+00  0.452646E-01
   Van der Waals                 : -0.250137E-03 -0.353908E-02 -0.700673E-02
   ----------------------------------------------------------------
   Total forces(   4)            :  0.641430E-01 -0.601097E-01 -0.269177E+00
  atom #    5
   Hellmann-Feynman              :  0.110535E-01  0.183828E+00 -0.282364E+00
   Ionic forces                  :  0.000000E+00  0.000000E+00  0.000000E+00
   Multipole                     :  0.392129E-01 -0.908749E-02 -0.128042E+00
   Pulay + GGA                   : -0.189343E+00 -0.634596E-01  0.139221E+00
   Van der Waals                 : -0.962097E-03  0.344141E-02  0.389403E-02
   ----------------------------------------------------------------
   Total forces(   5)            : -0.140039E+00  0.114722E+00 -0.267291E+00
  atom #    6
   Hellmann-Feynman              :  0.728602E-01 -0.408040E+00  0.196937E+00
   Ionic forces                  :  0.000000E+00  0.000000E+00  0.000000E+00
   Multipole                     : -0.597716E-01  0.589299E+00  0.258061E+00
   Pulay + GGA                   :  0.235365E+00 -0.619052E+00 -0.335296E+00
   Van der Waals                 : -0.249303E-02  0.392803E-02 -0.412137E-02
   ----------------------------------------------------------------
   Total forces(   6)            :  0.245960E+00 -0.433865E+00  0.115581E+00
  atom #    7
   Hellmann-Feynman              : -0.250208E+00 -0.637425E-01 -0.321871E-01
   Ionic forces                  :  0.000000E+00  0.000000E+00  0.000000E+00
   Multipole                     : -0.119503E+00  0.489592E-01  0.259517E-01
   Pulay + GGA                   :  0.110149E+00  0.274991E-02  0.417560E-01
   Van der Waals                 : -0.286033E-02  0.219983E-02  0.845007E-02
   ----------------------------------------------------------------
   Total forces(   7)            : -0.262421E+00 -0.983359E-02  0.439706E-01
  atom #    8
   Hellmann-Feynman              :  0.159346E-01 -0.266492E-01  0.166190E+00
   Ionic forces                  :  0.000000E+00  0.000000E+00  0.000000E+00
   Multipole                     :  0.178617E-01  0.651140E-01  0.120065E+00
   Pulay + GGA                   : -0.535834E-01 -0.562907E-01 -0.120264E+00
   Van der Waals                 : -0.298508E-02  0.113900E-01  0.584491E-03
   ----------------------------------------------------------------
   Total forces(   8)            : -0.227721E-01 -0.643589E-02  0.166575E+00
  atom #    9
   Hellmann-Feynman              :  0.128430E+00  0.695153E-01 -0.170192E+00
   Ionic forces                  :  0.000000E+00  0.000000E+00  0.000000E+00
   Multipole                     :  0.163431E-01  0.127301E+00 -0.110142E-01
   Pulay + GGA                   : -0.267295E-01 -0.689746E-01  0.681383E-01
   Van der Waals                 :  0.129513E-03  0.590247E-02  0.716089E-02
   ----------------------------------------------------------------
   Total forces(   9)            :  0.118173E+00  0.133745E+00 -0.105907E+00
  atom #   10
   Hellmann-Feynman              :  0.180394E+01  0.296704E+01  0.150824E+01
   Ionic forces                  :  0.000000E+00  0.000000E+00  0.000000E+00
   Multipole                     :  0.404189E-01 -0.825865E-01  0.239296E+00
   Pulay + GGA                   : -0.122658E+01 -0.242527E+01 -0.125685E+00
   Van der Waals                 :  0.246709E-02 -0.107897E-01 -0.306328E-02
   ----------------------------------------------------------------
   Total forces(  10)            :  0.620247E+00  0.448402E+00  0.161879E+01
  atom #   11
   Hellmann-Feynman              :  0.420476E+01 -0.231437E+01  0.143500E+02
   Ionic forces                  :  0.000000E+00  0.000000E+00  0.000000E+00
   Multipole                     :  0.148836E+00 -0.613616E+00  0.962570E+00
   Pulay + GGA                   : -0.347196E+01  0.365923E+01 -0.140756E+02
   Van der Waals                 : -0.105815E-02 -0.121882E-01  0.802434E-02
   ----------------------------------------------------------------
   Total forces(  11)            :  0.880579E+00  0.719053E+00  0.124500E+01
  atom #   12
   Hellmann-Feynman              : -0.617874E+01 -0.125613E+02  0.136362E+01
   Ionic forces                  :  0.000000E+00  0.000000E+00  0.000000E+00
   Multipole                     : -0.805504E+00 -0.146341E+01 -0.109046E-01
   Pulay + GGA                   :  0.585571E+01  0.128827E+02 -0.282307E+01
   Van der Waals                 :  0.175059E-02  0.103485E-01  0.842971E-03
   ----------------------------------------------------------------
   Total forces(  12)            : -0.112678E+01 -0.113166E+01 -0.146951E+01
  atom #   13
   Hellmann-Feynman              : -0.705530E+00  0.138982E+00 -0.201265E+01
   Ionic forces                  :  0.000000E+00  0.000000E+00  0.000000E+00
   Multipole                     :  0.861132E-02  0.717595E-01 -0.761516E-01
   Pulay + GGA                   :  0.374941E-01 -0.178931E+00  0.354844E+00
   Van der Waals                 : -0.424584E-02 -0.189631E-02  0.162602E-02
   ----------------------------------------------------------------
   Total forces(  13)            : -0.663671E+00  0.299141E-01 -0.173233E+01

  Timings for VdW correction (Tkatchenko-Scheffler 2009 or later):
  | CPU time:        0.089 s, Wall clock time:        0.090 s.
  Removing unitary transformations (pure translations, rotations) from forces on atoms.
  Atomic forces before filtering:
  | Net force on center of mass :  -0.503300E-03  0.256402E-02 -0.757873E-02 eV/A
  | Net torque on center of mass:   0.883222E-02 -0.187286E-02 -0.280149E-02 eV
  Atomic forces after filtering:
  | Net force on center of mass :   0.446015E-15 -0.334511E-15  0.000000E+00 eV/A
  | Net torque on center of mass:   0.132762E-15 -0.566451E-15 -0.188817E-15 eV

  Energy and forces in a compact form:
  | Total energy uncorrected      :         -0.880327671724037E+04 eV
  | Total energy corrected        :         -0.880327671724037E+04 eV  <-- do not rely on this value for anything but (periodic) metals
  | Electronic free energy        :         -0.880327671724037E+04 eV
  Total atomic forces (unitary forces cleaned) [eV/Ang]:
  |   1         -0.327812847257305E-01          0.711793820624275E+00         -0.965113709218321E-01
  |   2          0.302686569029097E+00          0.309127853865833E-01          0.903272645810776E-01
  |   3          0.161836569869616E-01         -0.544814834954291E+00          0.654523200546408E+00
  |   4          0.639842025727620E-01         -0.607271344170961E-01         -0.268730420896396E+00
  |   5         -0.140148271142534E+00          0.114138024822676E+00         -0.266758693114797E+00
  |   6          0.245924988407101E+00         -0.433915979278946E+00          0.115892158592482E+00
  |   7         -0.262458419650497E+00         -0.998991657882269E-02          0.443550968144199E-01
  |   8         -0.227341915922300E-01         -0.622030411808886E-02          0.166858032889439E+00
  |   9          0.118011145838226E+00          0.133617510179955E+00         -0.105822105061159E+00
  |  10          0.620468139243098E+00          0.448364901954139E+00          0.161966629541247E+01
  |  11          0.880910151966859E+00          0.719299026715673E+00          0.124591571620293E+01
  |  12         -0.112652315751206E+01         -0.113192178582807E+01         -0.146839211228487E+01
  |  13         -0.663523529421052E+00          0.294638854920133E-01         -0.173132306276017E+01

  ------------------------------------ 
  Start decomposition of the XC Energy 
  ------------------------------------ 
  X and C from original XC functional choice 
  Hartree-Fock Energy :          0.000000000 Ha              0.000000000 eV
  X Energy            :        -41.042892428 Ha          -1116.833926858 eV
  C Energy            :         -1.603202133 Ha            -43.625349678 eV
  Total XC Energy     :        -42.646094561 Ha          -1160.459276536 eV
  ------------------------------------ 
  LDA X and C from self-consistent density 
  X Energy LDA        :        -37.265350064 Ha          -1014.041769109 eV
  C Energy LDA        :         -3.139417211 Ha            -85.427888830 eV
  ------------------------------------ 
  End decomposition of the XC Energy 
  ------------------------------------ 

------------------------------------------------------------

------------------------------------------------------------------------------
  Final output of selected total energy values:

  The following output summarizes some interesting total energy values
  at the end of a run (AFTER all relaxation, molecular dynamics, etc.).

  | Total energy of the DFT / Hartree-Fock s.c.f. calculation      :          -8803.276717240 eV
  | Final zero-broadening corrected energy (caution - metals only) :          -8803.276717240 eV
  | For reference only, the value of 1 Hartree used in FHI-aims is :             27.211384500 eV

  Before relying on these values, please be sure to understand exactly which
  total energy value is referred to by a given number. Different objects may
  all carry the same name 'total energy'. Definitions:

  Total energy of the DFT / Hartree-Fock s.c.f. calculation:
  | Note that this energy does not include ANY quantities calculated after the
  | s.c.f. cycle, in particular not ANY RPA, MP2, etc. many-body perturbation terms.

  Final zero-broadening corrected energy:
  | For metallic systems only, a broadening of the occupation numbers at the Fermi
  | level can be extrapolated back to zero broadening by an electron-gas inspired
  | formula. For all systems that are not real metals, this value can be
  | meaningless and should be avoided.

------------------------------------------------------------------------------
  Methods described in the following list of references were used in this FHI-aims run.
  If you publish the results, please make sure to cite these reference if they apply.
  FHI-aims is an academic code, and for our developers (often, Ph.D. students
  and postdocs), scientific credit in the community is essential.
  Thank you for helping us!

  For any use of FHI-aims, please cite:

    Volker Blum, Ralf Gehrke, Felix Hanke, Paula Havu, Ville Havu,
    Xinguo Ren, Karsten Reuter, and Matthias Scheffler
    'Ab initio molecular simulations with numeric atom-centered orbitals'
    Computer Physics Communications 180, 2175-2196 (2009)
    http://dx.doi.org/10.1016/j.cpc.2009.06.022


  The scalable eigensolver library ELPA was used in your run.
  ELPA is essential especially for large systems on hundreds or thousands of CPUs.
  For ELPA, please cite:

    Andreas Marek, Volker Blum, Rainer Johanni, Ville Havu, Bruno Lang,
    Thomas Auckenthaler, Alexander Heinecke, Hans-Joachim Bungartz, and Hermann Lederer,
    'The ELPA Library - Scalable Parallel Eigenvalue Solutions
    for Electronic Structure Theory and Computational Science'
    The Journal of Physics: Condensed Matter 26, 213201 (2014).
    http://dx.doi.org/10.1088/0953-8984/26/21/213201


  The ELSI infrastructure was used in your run to solve the Kohn-Sham electronic structure.
  Please check out http://elsi-interchange.org to learn more.
  If scalability is important for your project, please acknowledge ELSI by citing:

    V. W-z. Yu, F. Corsetti, A. Garcia, W. P. Huhn, M. Jacquelin, W. Jia,
    B. Lange, L. Lin, J. Lu, W. Mi, A. Seifitokaldani, A. Vazquez-Mayagoitia,
    C. Yang, H. Yang, and V. Blum
    'ELSI: A unified software interface for Kohn-Sham electronic structure solvers'
    Computer Physics Communications 222, 267-285 (2018).
    http://dx.doi.org/10.1016/j.cpc.2017.09.007


  For the real-space grid partitioning and parallelization used in this calculation, please cite:

    Ville Havu, Volker Blum, Paula Havu, and Matthias Scheffler,
    'Efficient O(N) integration for all-electron electronic structure calculation'
    'using numerically tabulated basis functions'
    Journal of Computational Physics 228, 8367-8379 (2009).
    http://dx.doi.org/10.1016/j.jcp.2009.08.008

  Of course, there are many other important community references, e.g., those cited in the
  above references. Our list is limited to references that describe implementations in the
  FHI-aims code. The reason is purely practical (length of this list) - please credit others as well.

------------------------------------------------------------
          Leaving FHI-aims.
          Date     :  20200805, Time     :  190117.865

          Computational steps:
          | Number of self-consistency cycles          :           16
          | Number of SCF (re)initializations          :            1

          Detailed time accounting                     :  max(cpu_time)    wall_clock(cpu1)
          | Total time                                 :       22.523 s          22.571 s
          | Preparation time                           :        0.143 s           0.144 s
          | Boundary condition initalization           :        0.000 s           0.000 s
          | Grid partitioning                          :        0.110 s           0.110 s
          | Preloading free-atom quantities on grid    :        0.002 s           0.002 s
          | Free-atom superposition energy             :        0.084 s           0.084 s
          | Total time for integrations                :        8.557 s           8.565 s
          | Total time for solution of K.-S. equations :        0.035 s           0.038 s
          | Total time for density & force components  :        7.104 s           7.117 s
          | Total time for mixing                      :        0.210 s           0.211 s
          | Total time for Hartree multipole update    :        0.139 s           0.141 s
          | Total time for Hartree multipole sum       :        5.740 s           5.749 s
          | Total time for total energy evaluation     :        0.003 s           0.003 s
          | Total time for vdW correction              :        0.089 s           0.090 s

          Partial memory accounting:
          | Residual value for overall tracked memory usage across tasks :           0.000 MB (should be 0.000 MB)
          | Peak values for overall tracked memory usage (after allocating hessian_basis_wave):
          |   Minimum:        1.622 MB (on task 1)
          |   Maximum:        1.622 MB (on task 1)
          |   Average:        1.622 MB
          | Largest tracked array allocation (hessian_basis_wave):
          |   Minimum:        0.794 MB (on task 1)
          |   Maximum:        0.794 MB (on task 1)
          |   Average:        0.794 MB
          Note:  These values currently only include a subset of arrays which are explicitly tracked.
          The "true" memory usage will be greater.

          Have a nice day.
------------------------------------------------------------
