  MPI-parallelism will be employed.
------------------------------------------------------------
          Invoking FHI-aims ...
          Version 171221_1
          Compiled on 2019/09/09 at 14:39:39 on host puhti-login2.bullx.

          When using FHI-aims, please cite the following reference:

          Volker Blum, Ralf Gehrke, Felix Hanke, Paula Havu,
          Ville Havu, Xinguo Ren, Karsten Reuter, and Matthias Scheffler,
          'Ab Initio Molecular Simulations with Numeric Atom-Centered Orbitals',
          Computer Physics Communications 180, 2175-2196 (2009)

          For any questions about FHI-aims, please visit the aimsclub website
          with its forums and wiki. Contributions to both the forums and the
          wiki are warmly encouraged - they are for you, and everyone is welcome there.

------------------------------------------------------------



  Date     :  20200902, Time     :  110549.857
  Time zero on CPU 1             :   0.113120000000000E-01  s.
  Internal wall clock time zero  :           368276749.857  s.

  FHI-aims created a unique identifier for this run for later identification
  aims_uuid : 73008D04-9828-4C58-AAF1-4ED07A18DBF8

  Using        1 parallel tasks.
  Task        0 on host r18c45.bullx reporting.

  Performing system and environment tests:
  | Environment variable OMP_NUM_THREADS correctly set to 1.
  | Stacksize not measured: no C compiler
  | Checking for scalapack...
  | Testing pdtran()...
  | All pdtran() tests passed.

  Obtaining array dimensions for all initial allocations:
  
  -----------------------------------------------------------------------
  Parsing control.in (first pass over file, find array dimensions only).
  The contents of control.in will be repeated verbatim below
  unless switched off by setting 'verbatim_writeout .false.' .
  in the first line of control.in .
  -----------------------------------------------------------------------
  
  #########################################################################################
  #
  #  Volker Blum, FHI 2009 : Test run input file control.in for simple H2O
  #
  #########################################################################################
  #
  #  Physical model
  #
    xc                 pbe
    vdw_correction_hirshfeld
    spin               none
    relativistic       none
    charge             0.
  #
  #  SCF convergence
  #
    occupation_type    gaussian 0.01
    mixer              pulay
      n_max_pulay        10
      charge_mix_param   0.2
    sc_accuracy_rho    1E-5
    sc_accuracy_eev    1E-3
    sc_accuracy_etot   1E-6
    sc_accuracy_forces 1E-4
    sc_iter_limit      100
  #
  #  Relaxation
  #
  #  relax_geometry   bfgs 1.e-3
  #
  ################################################################################
  #
  #  FHI-aims code project
  #  VB, Fritz-Haber Institut, 2009
  #
  #  Suggested "light" defaults for H atom (to be pasted into control.in file)
  #  Be sure to double-check any results obtained with these settings for post-processing,
  #  e.g., with the "tight" defaults and larger basis sets.
  #
  ################################################################################
    species        H
  #     global species definitions
      nucleus             1
      mass                1.00794
  #
      l_hartree           4
  #
      cut_pot             3.5  1.5  1.0
      basis_dep_cutoff    1e-4
  #
      radial_base         24 5.0
      radial_multiplier   1
      angular_grids       specified
        division   0.2421   50
        division   0.3822  110
        division   0.4799  194
        division   0.5341  302
  #      division   0.5626  434
  #      division   0.5922  590
  #      division   0.6542  770
  #      division   0.6868 1202
  #      outer_grid  770
        outer_grid  302
  ################################################################################
  #
  #  Definition of "minimal" basis
  #
  ################################################################################
  #     valence basis states
      valence      1  s   1.
  #     ion occupancy
      ion_occ      1  s   0.5
  ################################################################################
  #
  #  Suggested additional basis functions. For production calculations,
  #  uncomment them one after another (the most important basis functions are
  #  listed first).
  #
  #  Basis constructed for dimers: 0.5 A, 0.7 A, 1.0 A, 1.5 A, 2.5 A
  #
  ################################################################################
  #  "First tier" - improvements: -1014.90 meV to -62.69 meV
       hydro 2 s 2.1
       hydro 2 p 3.5
  #  "Second tier" - improvements: -12.89 meV to -1.83 meV
  #     hydro 1 s 0.85
  #     hydro 2 p 3.7
  #     hydro 2 s 1.2
  #     hydro 3 d 7
  #  "Third tier" - improvements: -0.25 meV to -0.12 meV
  #     hydro 4 f 11.2
  #     hydro 3 p 4.8
  #     hydro 4 d 9
  #     hydro 3 s 3.2
  ################################################################################
  #
  #  FHI-aims code project
  #  VB, Fritz-Haber Institut, 2009
  #
  #  Suggested "light" defaults for C atom (to be pasted into control.in file)
  #  Be sure to double-check any results obtained with these settings for post-processing,
  #  e.g., with the "tight" defaults and larger basis sets.
  #
  ################################################################################
    species        C
  #     global species definitions
      nucleus             6
      mass                12.0107
  #
      l_hartree           4
  #
      cut_pot             3.5  1.5  1.0
      basis_dep_cutoff    1e-4
  #
      radial_base         34 5.0
      radial_multiplier   1
      angular_grids specified
        division   0.3326   50
        division   0.5710  110
        division   0.7727  194
        division   0.8772  302
  #      division   0.9334  434
  #      division   0.9625  590
  #      division   0.9924  770
  #      division   1.0230  974
  #      division   1.4589 1202
  #     outer_grid  974
       outer_grid 302
  ################################################################################
  #
  #  Definition of "minimal" basis
  #
  ################################################################################
  #     valence basis states
      valence      2  s   2.
      valence      2  p   2.
  #     ion occupancy
      ion_occ      2  s   1.
      ion_occ      2  p   1.
  ################################################################################
  #
  #  Suggested additional basis functions. For production calculations,
  #  uncomment them one after another (the most important basis functions are
  #  listed first).
  #
  #  Constructed for dimers: 1.0 A, 1.25 A, 1.5 A, 2.0 A, 3.0 A
  #
  ################################################################################
  #  "First tier" - improvements: -1214.57 meV to -155.61 meV
       hydro 2 p 1.7
       hydro 3 d 6
       hydro 2 s 4.9
  #  "Second tier" - improvements: -67.75 meV to -5.23 meV
  #     hydro 4 f 9.8
  #     hydro 3 p 5.2
  #     hydro 3 s 4.3
  #     hydro 5 g 14.4
  #     hydro 3 d 6.2
  #  "Third tier" - improvements: -2.43 meV to -0.60 meV
  #     hydro 2 p 5.6
  #     hydro 2 s 1.4
  #     hydro 3 d 4.9
  #     hydro 4 f 11.2
  #  "Fourth tier" - improvements: -0.39 meV to -0.18 meV
  #     hydro 2 p 2.1
  #     hydro 5 g 16.4
  #     hydro 4 d 13.2
  #     hydro 3 s 13.6
  #     hydro 4 f 17.6
  #  Further basis functions - improvements: -0.08 meV and below
  #     hydro 3 s 2
  #     hydro 3 p 6
  #     hydro 4 d 20
  ################################################################################
  #
  #  FHI-aims code project
  #  VB, Fritz-Haber Institut, 2009
  #
  #  Suggested "light" defaults for N atom (to be pasted into control.in file)
  #  Be sure to double-check any results obtained with these settings for post-processing,
  #  e.g., with the "tight" defaults and larger basis sets.
  #
  ################################################################################
    species        N
  #     global species definitions
      nucleus             7
      mass                14.0067
  #
      l_hartree           4
  #
      cut_pot             3.5  1.5  1.0
      basis_dep_cutoff    1e-4
  #
      radial_base         35 5.0
      radial_multiplier   1
      angular_grids       specified
        division   0.2599   50
        division   0.4601  110
        division   0.5885  194
        division   0.6503  302
  #      division   0.6939  434
  #      division   0.7396  590
  #      division   0.7632  770
  #      division   0.8122  974
  #      division   1.1604 1202
  #      outer_grid  974
        outer_grid  302
  ################################################################################
  #
  #  Definition of "minimal" basis
  #
  ################################################################################
  #     valence basis states
      valence      2  s   2.
      valence      2  p   3.
  #     ion occupancy
      ion_occ      2  s   1.
      ion_occ      2  p   2.
  ################################################################################
  #
  #  Suggested additional basis functions. For production calculations,
  #  uncomment them one after another (the most important basis functions are
  #  listed first).
  #
  #  Constructed for dimers: 1.0 A, 1.1 A, 1.5 A, 2.0 A, 3.0 A
  #
  ################################################################################
  #  "First tier" - improvements: -1193.42 meV to -220.60 meV
       hydro 2 p 1.8
       hydro 3 d 6.8
       hydro 3 s 5.8
  #  "Second tier" - improvements: -80.21 meV to -6.86 meV
  #     hydro 4 f 10.8
  #     hydro 3 p 5.8
  #     hydro 1 s 0.8
  #     hydro 5 g 16
  #     hydro 3 d 4.9
  #  "Third tier" - improvements: -4.29 meV to -0.53 meV
  #     hydro 3 s 16
  #     ionic 2 p auto
  #     hydro 3 d 6.6
  #     hydro 4 f 11.6
  #  "Fourth tier" - improvements: -0.75 meV to -0.25 meV
  #     hydro 2 p 4.5
  #     hydro 2 s 2.4
  #     hydro 5 g 14.4
  #     hydro 4 d 14.4
  #     hydro 4 f 16.8
  # Further basis functions - -0.21 meV and below
  #     hydro 3 p 14.8
  #     hydro 3 s 4.4
  #     hydro 3 d 19.6
  #     hydro 5 g 12.8
  ################################################################################
  #
  #  FHI-aims code project
  #  VB, Fritz-Haber Institut, 2009
  #
  #  Suggested "light" defaults for O atom (to be pasted into control.in file)
  #  Be sure to double-check any results obtained with these settings for post-processing,
  #  e.g., with the "tight" defaults and larger basis sets.
  #
  ################################################################################
    species        O
  #     global species definitions
      nucleus             8
      mass                15.9994
  #
      l_hartree           4
  #
      cut_pot             3.5  1.5  1.0
      basis_dep_cutoff    1e-4
  #
      radial_base         36 5.0
      radial_multiplier   1
       angular_grids specified
        division   0.2659   50
        division   0.4451  110
        division   0.6052  194
        division   0.7543  302
  #      division   0.8014  434
  #      division   0.8507  590
  #      division   0.8762  770
  #      division   0.9023  974
  #      division   1.2339 1202
  #      outer_grid 974
        outer_grid 302
  ################################################################################
  #
  #  Definition of "minimal" basis
  #
  ################################################################################
  #     valence basis states
      valence      2  s   2.
      valence      2  p   4.
  #     ion occupancy
      ion_occ      2  s   1.
      ion_occ      2  p   3.
  ################################################################################
  #
  #  Suggested additional basis functions. For production calculations,
  #  uncomment them one after another (the most important basis functions are
  #  listed first).
  #
  #  Constructed for dimers: 1.0 A, 1.208 A, 1.5 A, 2.0 A, 3.0 A
  #
  ################################################################################
  #  "First tier" - improvements: -699.05 meV to -159.38 meV
       hydro 2 p 1.8
       hydro 3 d 7.6
       hydro 3 s 6.4
  #  "Second tier" - improvements: -49.91 meV to -5.39 meV
  #     hydro 4 f 11.6
  #     hydro 3 p 6.2
  #     hydro 3 d 5.6
  #     hydro 5 g 17.6
  #     hydro 1 s 0.75
  #  "Third tier" - improvements: -2.83 meV to -0.50 meV
  #     ionic 2 p auto
  #     hydro 4 f 10.8
  #     hydro 4 d 4.7
  #     hydro 2 s 6.8
  #  "Fourth tier" - improvements: -0.40 meV to -0.12 meV
  #     hydro 3 p 5
  #     hydro 3 s 3.3
  #     hydro 5 g 15.6
  #     hydro 4 f 17.6
  #     hydro 4 d 14
  # Further basis functions - -0.08 meV and below
  #     hydro 3 s 2.1
  #     hydro 4 d 11.6
  #     hydro 3 p 16
  #     hydro 2 s 17.2
  
  -----------------------------------------------------------------------
  Completed first pass over input file control.in .
  -----------------------------------------------------------------------
  
  
  -----------------------------------------------------------------------
  Parsing geometry.in (first pass over file, find array dimensions only).
  The contents of geometry.in will be repeated verbatim below
  unless switched off by setting 'verbatim_writeout .false.' .
  in the first line of geometry.in .
  -----------------------------------------------------------------------
  
  atom  0.00000 0.00000 0.00000 C
  atom  1.09300 0.00000 0.00000 H
  atom  -0.47961 0.00000 -1.41207 N
  atom  -1.41828 -0.40003 -1.43869 H
  atom  -0.49628 0.95946 -1.75161 H
  atom  -0.49584 1.26211 0.72868 C
  atom  -1.58789 1.28919 0.74431 H
  atom  -0.13407 1.27425 1.75947 H
  atom  -0.13407 2.16087 0.22380 H
  atom  -0.39425 -1.28861 0.74398 C
  atom  -0.10189 -1.56493 1.88303 O
  atom  -1.10210 -2.13717 0.06896 O
  atom  -0.87443 -2.94008 0.56745 H
  
  -----------------------------------------------------------------------
  Completed first pass over input file geometry.in .
  -----------------------------------------------------------------------
  

  Basic array size parameters:
  | Number of species                 :        4
  | Number of atoms                   :       13
  | Max. basis fn. angular momentum   :        2
  | Max. atomic/ionic basis occupied n:        2
  | Max. number of basis fn. types    :        2
  | Max. radial fns per species/type  :        3
  | Max. logarithmic grid size        :     1301
  | Max. radial integration grid size :       36
  | Max. angular integration grid size:      302
  | Max. angular grid division number :        8
  | Radial grid for Hartree potential :     1301
  | Number of spin channels           :        1

------------------------------------------------------------
          Reading file control.in.
------------------------------------------------------------
  XC: Using PBE gradient-corrected functionals.
  Spin treatment: No spin polarisation.
  Non-relativistic treatment of kinetic energy.
  Charge =   0.000000E+00: Neutral system requested explicitly.
  Occupation type: Gaussian broadening, width =   0.100000E-01 eV.
  Using pulay charge density mixing.
  Pulay mixing - number of memorized iterations:   10
  Charge density mixing - mixing parameter:     0.2000
  Convergence accuracy of self-consistent charge density:  0.1000E-04
  Convergence accuracy of sum of eigenvalues:  0.1000E-02
  Convergence accuracy of total energy:  0.1000E-05
  Convergence accuracy of forces:  0.1000E-03
  Maximum number of s.-c. iterations  :   100
 
  Reading configuration options for species H                   .
  | Found nuclear charge :   1.0000
  | Found atomic mass :    1.00794000000000      amu
  | Found l_max for Hartree potential  :   4
  | Found cutoff potl. onset [A], width [A], scale factor :    3.50000    1.50000    1.00000
  | Threshold for basis-dependent cutoff potential is   0.100000E-03
  | Found data for basic radial integration grid :    24 points, outermost radius =    5.000 A
  | Found multiplier for basic radial grid :   1
  | Found angular grid specification: user-specified.
  | Specified grid contains     5 separate shells.
  | Check grid settings after all constraints further below.
  | Found free-atom valence shell :  1 s   1.000
  | No ionic wave fns used. Skipping ion_occ.
  | Found hydrogenic basis function :  2 s   2.100
  | Found hydrogenic basis function :  2 p   3.500
  Species H                   : Missing cutoff potential type.
  Defaulting to exp(1/x)/(1-x)^2 type cutoff potential.
  Species H : No 'logarithmic' tag. Using default grid for free atom:
  | Default logarithmic grid data [bohr] : 0.1000E-03 0.1000E+03 0.1012E+01
  Species H : On-site basis accuracy parameter (for Gram-Schmidt orthonormalisation) not specified.
  Using default value basis_acc =  0.1000000E-03.
  Species H                   : Using default innermost maximum threshold i_radial=  2 for radial functions.
  Species H                   : Default cutoff onset for free atom density etc. : 0.35000000E+01 AA.
  Species H                   : Basic radial grid will be enhanced according to radial_multiplier =   1, to contain    24 grid points.
 
  Reading configuration options for species C                   .
  | Found nuclear charge :   6.0000
  | Found atomic mass :    12.0107000000000      amu
  | Found l_max for Hartree potential  :   4
  | Found cutoff potl. onset [A], width [A], scale factor :    3.50000    1.50000    1.00000
  | Threshold for basis-dependent cutoff potential is   0.100000E-03
  | Found data for basic radial integration grid :    34 points, outermost radius =    5.000 A
  | Found multiplier for basic radial grid :   1
  | Found angular grid specification: user-specified.
  | Specified grid contains     5 separate shells.
  | Check grid settings after all constraints further below.
  | Found free-atom valence shell :  2 s   2.000
  | Found free-atom valence shell :  2 p   2.000
  | No ionic wave fns used. Skipping ion_occ.
  | No ionic wave fns used. Skipping ion_occ.
  | Found hydrogenic basis function :  2 p   1.700
  | Found hydrogenic basis function :  3 d   6.000
  | Found hydrogenic basis function :  2 s   4.900
  Species C                   : Missing cutoff potential type.
  Defaulting to exp(1/x)/(1-x)^2 type cutoff potential.
  Species C : No 'logarithmic' tag. Using default grid for free atom:
  | Default logarithmic grid data [bohr] : 0.1000E-03 0.1000E+03 0.1012E+01
  Species C : On-site basis accuracy parameter (for Gram-Schmidt orthonormalisation) not specified.
  Using default value basis_acc =  0.1000000E-03.
  Species C                   : Using default innermost maximum threshold i_radial=  2 for radial functions.
  Species C                   : Default cutoff onset for free atom density etc. : 0.35000000E+01 AA.
  Species C                   : Basic radial grid will be enhanced according to radial_multiplier =   1, to contain    34 grid points.
 
  Reading configuration options for species N                   .
  | Found nuclear charge :   7.0000
  | Found atomic mass :    14.0067000000000      amu
  | Found l_max for Hartree potential  :   4
  | Found cutoff potl. onset [A], width [A], scale factor :    3.50000    1.50000    1.00000
  | Threshold for basis-dependent cutoff potential is   0.100000E-03
  | Found data for basic radial integration grid :    35 points, outermost radius =    5.000 A
  | Found multiplier for basic radial grid :   1
  | Found angular grid specification: user-specified.
  | Specified grid contains     5 separate shells.
  | Check grid settings after all constraints further below.
  | Found free-atom valence shell :  2 s   2.000
  | Found free-atom valence shell :  2 p   3.000
  | No ionic wave fns used. Skipping ion_occ.
  | No ionic wave fns used. Skipping ion_occ.
  | Found hydrogenic basis function :  2 p   1.800
  | Found hydrogenic basis function :  3 d   6.800
  | Found hydrogenic basis function :  3 s   5.800
  Species N                   : Missing cutoff potential type.
  Defaulting to exp(1/x)/(1-x)^2 type cutoff potential.
  Species N : No 'logarithmic' tag. Using default grid for free atom:
  | Default logarithmic grid data [bohr] : 0.1000E-03 0.1000E+03 0.1012E+01
  Species N : On-site basis accuracy parameter (for Gram-Schmidt orthonormalisation) not specified.
  Using default value basis_acc =  0.1000000E-03.
  Species N                   : Using default innermost maximum threshold i_radial=  2 for radial functions.
  Species N                   : Default cutoff onset for free atom density etc. : 0.35000000E+01 AA.
  Species N                   : Basic radial grid will be enhanced according to radial_multiplier =   1, to contain    35 grid points.
 
  Reading configuration options for species O                   .
  | Found nuclear charge :   8.0000
  | Found atomic mass :    15.9994000000000      amu
  | Found l_max for Hartree potential  :   4
  | Found cutoff potl. onset [A], width [A], scale factor :    3.50000    1.50000    1.00000
  | Threshold for basis-dependent cutoff potential is   0.100000E-03
  | Found data for basic radial integration grid :    36 points, outermost radius =    5.000 A
  | Found multiplier for basic radial grid :   1
  | Found angular grid specification: user-specified.
  | Specified grid contains     5 separate shells.
  | Check grid settings after all constraints further below.
  | Found free-atom valence shell :  2 s   2.000
  | Found free-atom valence shell :  2 p   4.000
  | No ionic wave fns used. Skipping ion_occ.
  | No ionic wave fns used. Skipping ion_occ.
  | Found hydrogenic basis function :  2 p   1.800
  | Found hydrogenic basis function :  3 d   7.600
  | Found hydrogenic basis function :  3 s   6.400
  Species O                   : Missing cutoff potential type.
  Defaulting to exp(1/x)/(1-x)^2 type cutoff potential.
  Species O : No 'logarithmic' tag. Using default grid for free atom:
  | Default logarithmic grid data [bohr] : 0.1000E-03 0.1000E+03 0.1012E+01
  Species O : On-site basis accuracy parameter (for Gram-Schmidt orthonormalisation) not specified.
  Using default value basis_acc =  0.1000000E-03.
  Species O                   : Using default innermost maximum threshold i_radial=  2 for radial functions.
  Species O                   : Default cutoff onset for free atom density etc. : 0.35000000E+01 AA.
  Species O                   : Basic radial grid will be enhanced according to radial_multiplier =   1, to contain    36 grid points.
 
  Finished reading input file 'control.in'. Consistency checks are next.
 
  MPI_IN_PLACE appears to work with this MPI implementation.
  | Keeping use_mpi_in_place .true. (see manual).
  Target number of points in a grid batch is not set. Defaulting to  100
  Method for grid partitioning is not set. Defaulting to parallel hash+maxmin partitioning.
  Batch size limit is not set. Defaulting to    200
  By default, will store active basis functions for each batch.
  If in need of memory, prune_basis_once .false. can be used to disable this option.
  communication_type for Hartree potential was not specified.
  Defaulting to calc_hartree .
  Pulay mixer: Number of initial linear mixing iterations not set.
  Defaulting to    0 iterations.
  Work space size for distributed Hartree potential not set.
  Defaulting to   0.200000E+03 MB.
  Algorithm-dependent basis array size parameters:
  | n_max_pulay                         :       10
  Presetting      1001 iterations before the initial mixing cycle
  is restarted anyway using the sc_init_iter criterion / keyword.
  Presetting a factor      1.000 between actual scf density residual
  and density convergence criterion sc_accuracy_rho below which sc_init_iter
  takes no effect.
  Geometry relaxation not requested: no relaxation will be performed.
  Handling of forces: Unphysical translation and rotation will be removed from forces.
  No accuracy limit for integral partition fn. given. Defaulting to  0.1000E-14.
  No threshold value for u(r) in integrations given. Defaulting to  0.1000E-05.
  No accuracy for occupation numbers given. Defaulting to  0.1000E-12.
  No threshold value for occupation numbers given. Defaulting to  0.0000E+00.
  No accuracy for fermi level given. Defaulting to  0.1000E-19.
  Maximum # of iterations to find E_F not set. Defaulting to  200.
  Preferred method for the eigenvalue solver ('KS_method') not specified in 'control.in'.
  Defaulting to serial version, 'lapack_fast'.
  Will not use alltoall communication since running on < 1024 CPUs.
  Threshold for basis singularities not set.
  Default threshold for basis singularities:  0.1000E-04
  partition_type (choice of integration weights) for integrals was not specified.
  | Using a version of the partition function of Stratmann and coworkers ('stratmann_smoother').
  | At each grid point, the set of atoms used to build the partition table is smoothly restricted to
  | only those atoms whose free-atom density would be non-zero at that grid point.
  Partitioning for Hartree potential was not defined. Using partition_type for integrals.
  | Adjusted default value of keyword multip_moments_threshold to:       0.10000000E-11
  | This value may affect high angular momentum components of the Hartree potential in periodic systems.
  No q(lm)/r^(l+1) cutoff set for long-range Hartree potential.
  | Using default value of  0.100000E-09 .
  | Verify using the multipole_threshold keyword.
  Defaulting to new monopole extrapolation.
  Density update method: automatic selection selected.
------------------------------------------------------------


------------------------------------------------------------
          Reading geometry description geometry.in.
------------------------------------------------------------
  Input structure read successfully.
  The structure contains       13 atoms,  and a total of         48.000 electrons.

  Input geometry:
  | No unit cell requested.
  | Atomic structure:
  |       Atom                x [A]            y [A]            z [A]
  |    1: Species C             0.00000000        0.00000000        0.00000000
  |    2: Species H             1.09300000        0.00000000        0.00000000
  |    3: Species N            -0.47961000        0.00000000       -1.41207000
  |    4: Species H            -1.41828000       -0.40003000       -1.43869000
  |    5: Species H            -0.49628000        0.95946000       -1.75161000
  |    6: Species C            -0.49584000        1.26211000        0.72868000
  |    7: Species H            -1.58789000        1.28919000        0.74431000
  |    8: Species H            -0.13407000        1.27425000        1.75947000
  |    9: Species H            -0.13407000        2.16087000        0.22380000
  |   10: Species C            -0.39425000       -1.28861000        0.74398000
  |   11: Species O            -0.10189000       -1.56493000        1.88303000
  |   12: Species O            -1.10210000       -2.13717000        0.06896000
  |   13: Species H            -0.87443000       -2.94008000        0.56745000
  |

  | The smallest distance between any two atoms is         0.97210616 AA.
  |
  | The first atom of this pair is atom number                     12 .
  | The second atom of this pair is atom number                    13 .

  Number of empty states per atom not set in control.in - providing a guess from actual geometry.
  | Total number of empty states used during s.c.f. cycle:       29
  If you use a very high smearing, use empty_states (per atom!) in control.in to increase this value.

  Structure-dependent array size parameters: 
  | Maximum number of distinct radial functions  :       21
  | Maximum number of basis functions            :      119
  | Number of Kohn-Sham states (occupied + empty):       53
------------------------------------------------------------

------------------------------------------------------------
          Preparing all fixed parts of the calculation.
------------------------------------------------------------
  Determining machine precision:
    2.225073858507201E-308
  Setting up grids for atomic and cluster calculations.

  Creating wave function, potential, and density for free atoms.

  Species: H

  List of occupied orbitals and eigenvalues:
    n    l              occ      energy [Ha]    energy [eV]
    1    0           1.0000        -0.237589        -6.4651


  Species: C

  List of occupied orbitals and eigenvalues:
    n    l              occ      energy [Ha]    energy [eV]
    1    0           2.0000       -10.038835      -273.1706
    2    0           2.0000        -0.502696       -13.6791
    2    1           2.0000        -0.191971        -5.2238


  Species: N

  List of occupied orbitals and eigenvalues:
    n    l              occ      energy [Ha]    energy [eV]
    1    0           2.0000       -14.128000      -384.4424
    2    0           2.0000        -0.681077       -18.5330
    2    1           3.0000        -0.259788        -7.0692


  Species: O

  List of occupied orbitals and eigenvalues:
    n    l              occ      energy [Ha]    energy [eV]
    1    0           2.0000       -18.898188      -514.2459
    2    0           2.0000        -0.878505       -23.9053
    2    1           4.0000        -0.331779        -9.0282

  Creating fixed part of basis set: Ionic, confined, hydrogenic.
 
  H                    hydrogenic:
 
  List of hydrogenic basis orbitals: 
    n    l      effective z      eigenvalue [eV]  inner max. [A]     outer max. [A]     outer radius [A]   
    2    0         2.100000       -14.9728           0.193243           1.317208           4.583499
    2    1         3.500000       -41.6669           0.602369           0.602369           3.723403
 
 
  C                    hydrogenic:
 
  List of hydrogenic basis orbitals: 
    n    l      effective z      eigenvalue [eV]  inner max. [A]     outer max. [A]     outer radius [A]   
    2    1         1.700000        -9.7616           1.230570           1.230570           4.607917
    3    2         6.000000       -54.4224           0.792453           0.792453           3.883070
    2    0         4.900000       -81.6679           0.082559           0.562749           3.078220
 
 
  N                    hydrogenic:
 
  List of hydrogenic basis orbitals: 
    n    l      effective z      eigenvalue [eV]  inner max. [A]     outer max. [A]     outer radius [A]   
    2    1         1.800000       -10.9749           1.177451           1.177451           4.573712
    3    2         6.800000       -69.9026           0.704619           0.704619           3.538137
    3    0         5.800000       -50.8545           0.067388           1.191934           4.250239
 
 
  O                    hydrogenic:
 
  List of hydrogenic basis orbitals: 
    n    l      effective z      eigenvalue [eV]  inner max. [A]     outer max. [A]     outer radius [A]   
    2    1         1.800000       -10.9749           1.164242           1.164242           4.578029
    3    2         7.600000       -87.3180           0.624125           0.624125           3.251020
    3    0         6.400000       -61.9207           0.061167           1.081902           4.001998
 

  Adding cutoff potential to free-atom effective potential.
  Creating atomic-like basis functions for current effective potential.

  Species H                   :

  List of atomic basis orbitals and eigenvalues:
    n    l      energy [Ha]    energy [eV]    outer radius [A]
    1    0        -0.237589        -6.4651       4.527807


  Species C                   :

  List of atomic basis orbitals and eigenvalues:
    n    l      energy [Ha]    energy [eV]    outer radius [A]
    1    0       -10.038835      -273.1706       1.934409
    2    0        -0.502696       -13.6791       4.496620
    2    1        -0.191971        -5.2238       4.551928


  Species N                   :

  List of atomic basis orbitals and eigenvalues:
    n    l      energy [Ha]    energy [eV]    outer radius [A]
    1    0       -14.128000      -384.4424       1.637919
    2    0        -0.681077       -18.5330       4.463241
    2    1        -0.259788        -7.0692       4.518138


  Species O                   :

  List of atomic basis orbitals and eigenvalues:
    n    l      energy [Ha]    energy [eV]    outer radius [A]
    1    0       -18.898188      -514.2459       1.415765
    2    0        -0.878505       -23.9053       4.413171
    2    1        -0.331779        -9.0282       4.522403

  Assembling full basis from fixed parts.
  | Species H :   atomic orbital   1 s accepted.
  | Species H :    hydro orbital   2 s accepted.
  | Species H :    hydro orbital   2 p accepted.
  | Species C :   atomic orbital   1 s accepted.
  | Species C :    hydro orbital   2 s accepted.
  | Species C :   atomic orbital   2 s accepted.
  | Species C :   atomic orbital   2 p accepted.
  | Species C :    hydro orbital   2 p accepted.
  | Species C :    hydro orbital   3 d accepted.
  | Species N :   atomic orbital   1 s accepted.
  | Species N :    hydro orbital   3 s accepted.
  | Species N :   atomic orbital   2 s accepted.
  | Species N :   atomic orbital   2 p accepted.
  | Species N :    hydro orbital   2 p accepted.
  | Species N :    hydro orbital   3 d accepted.
  | Species O :   atomic orbital   1 s accepted.
  | Species O :    hydro orbital   3 s accepted.
  | Species O :   atomic orbital   2 s accepted.
  | Species O :   atomic orbital   2 p accepted.
  | Species O :    hydro orbital   2 p accepted.
  | Species O :    hydro orbital   3 d accepted.
 
  Basis size parameters after reduction:
  | Total number of radial functions:       21
  | Total number of basis functions :      119
 
  Per-task memory consumption for arrays in subroutine allocate_ext:
  |           5.250512MB.
  Testing on-site integration grid accuracy.
  |  Species  Function  <phi|h_atom|phi> (log., in eV)  <phi|h_atom|phi> (rad., in eV)
           1        1                 -6.4663192853                 -6.4651273558
           1        2                 13.7111246313                 13.7170609718
           1        3                 25.2673269279                 25.2674696378
           2        4               -273.1705927641               -273.1705631568
           2        5                -10.7109323383                -10.7107120029
           2        6                 17.4381822266                 17.4352413244
           2        7                 -5.2255326521                 -5.2270484734
           2        8                  8.6835629259                  8.6603288385
           2        9                 27.4952418996                 27.4953360207
           3       10               -384.4424306495               -384.4423701208
           3       11                 12.5842251816                 12.5842222903
           3       12                -15.7264628251                -15.7264433455
           3       13                 -7.0696854293                 -7.0701769954
           3       14                  8.8090390882                  8.7901077751
           3       15                 35.9586762123                 35.9588528632
           4       16               -514.2458688638               -514.2457643834
           4       17                 15.1795651126                 15.1795290741
           4       18                -21.5359799773                -21.5360846186
           4       19                 -9.0283069236                 -9.0284644067
           4       20                  8.3027758564                  8.2834874195
           4       21                 45.8339351984                 45.8338762259

  Preparing densities etc. for the partition functions (integrals / Hartree potential).

  Preparations completed.
  max(cpu_time)          :      0.144 s.
  Wall clock time (cpu1) :      0.145 s.
------------------------------------------------------------

------------------------------------------------------------
          Begin self-consistency loop: Initialization.

          Date     :  20200902, Time     :  110550.016
------------------------------------------------------------

  Initializing index lists of integration centers etc. from given atomic structure:
  | Number of centers in hartree potential         :        13
  | Number of centers in hartree multipole         :        13
  | Number of centers in electron density summation:        13
  | Number of centers in basis integrals           :        13
  | Number of centers in integrals                 :        13
  | Number of centers in hamiltonian               :        13
  Partitioning the integration grid into batches with parallel hashing+maxmin method.
  | Number of batches:      959
  | Maximal batch size:     138
  | Minimal batch size:      66
  | Average batch size:      72.624
  | Standard deviation of batch sizes:      17.106

  Integration load balanced across     1 MPI tasks.
  Work distribution over tasks is as follows:
  Task     0 has      69646 integration points.
  Initializing partition tables, free-atom densities, potentials, etc. across the integration grid (initialize_grid_storage).
  | initialize_grid_storage: Actual outermost partition radius vs. multipole_radius_free
  | (-- VB: in principle, multipole_radius_free should be larger, hence this output)
  | Species        1: Confinement radius =              4.999999999999999 AA, multipole_radius_free =              5.054417573612229 AA.
  | Species        1: outer_partition_radius set to              5.054417573612229 AA .
  | Species        2: Confinement radius =              4.999999999999999 AA, multipole_radius_free =              5.019602836301480 AA.
  | Species        2: outer_partition_radius set to              5.019602836301480 AA .
  | Species        3: Confinement radius =              4.999999999999999 AA, multipole_radius_free =              5.043624274424571 AA.
  | Species        3: outer_partition_radius set to              5.043624274424571 AA .
  | Species        4: Confinement radius =              4.999999999999999 AA, multipole_radius_free =              5.048384829883283 AA.
  | Species        4: outer_partition_radius set to              5.048384829883283 AA .
  | Original list of interatomic distances with          13 x         13 entries is created.
  | Net number of integration points:    69646
  | of which are non-zero points    :    59520
  Renormalizing the initial density to the exact electron count on the 3D integration grid.
  | Initial density: Formal number of electrons (from input files) :      48.0000000000
  | Integrated number of electrons on 3D grid     :      47.9998808226
  | Charge integration error                      :      -0.0001191774
  | Normalization factor for density and gradient :       1.0000024829
  Obtaining max. number of non-zero basis functions in each batch (get_n_compute_maxes).
  | Maximal number of non-zero basis functions:      119 in task     0
  Selecting the method for density update.
  Loop over occupied states selected for charge density update.
  Allocating        0.050 MB for KS_eigenvector
  Integrating Hamiltonian matrix: batch-based integration.
  Time summed over all CPUs for integration: real work        0.489 s, elapsed        0.489 s
  Integrating overlap matrix.
  Time summed over all CPUs for integration: real work        0.209 s, elapsed        0.209 s

  Updating Kohn-Sham eigenvalues and eigenvectors using ELSI and the ELPA eigensolver.
  Overlap matrix is nonsingular
  | Lowest eigenvalue of overlap  :  0.57E-02
  | Highest eigenvalue of overlap :  0.61E+01
  Finished singularity check of overlap matrix
  | Time :     0.002 s
  Finished Cholesky decomposition
  | Time :     0.000 s
  Finished transformation to standard eigenproblem
  | Time :     0.000 s
  Starting LAPACK eigensolver
  Finished solving standard eigenproblem
  | Time :     0.002 s
  Finished back-transformation of eigenvectors
  | Time :     0.000 s

  Obtaining occupation numbers and chemical potential using ELSI.
  | Chemical potential (Fermi level):    -9.20945010eV
  Writing Kohn-Sham eigenvalues.

  State    Occupation    Eigenvalue [Ha]    Eigenvalue [eV]
      1       2.00000         -19.007907         -517.23146
      2       2.00000         -18.978192         -516.42288
      3       2.00000         -14.245789         -387.64763
      4       2.00000         -10.166834         -276.65363
      5       2.00000         -10.141239         -275.95715
      6       2.00000         -10.132039         -275.70681
      7       2.00000          -1.187978          -32.32653
      8       2.00000          -1.093445          -29.75416
      9       2.00000          -0.992282          -27.00135
     10       2.00000          -0.858632          -23.36457
     11       2.00000          -0.763488          -20.77556
     12       2.00000          -0.683865          -18.60890
     13       2.00000          -0.620524          -16.88532
     14       2.00000          -0.601266          -16.36129
     15       2.00000          -0.578931          -15.75353
     16       2.00000          -0.571640          -15.55513
     17       2.00000          -0.548579          -14.92760
     18       2.00000          -0.535777          -14.57924
     19       2.00000          -0.527541          -14.35513
     20       2.00000          -0.490968          -13.35992
     21       2.00000          -0.478534          -13.02158
     22       2.00000          -0.428981          -11.67316
     23       2.00000          -0.401192          -10.91699
     24       2.00000          -0.390902          -10.63698
     25       0.00000          -0.151142           -4.11279
     26       0.00000          -0.058364           -1.58816
     27       0.00000          -0.026979           -0.73414
     28       0.00000          -0.022363           -0.60854
     29       0.00000          -0.001651           -0.04493
     30       0.00000           0.008285            0.22545
     31       0.00000           0.025521            0.69446
     32       0.00000           0.035228            0.95861
     33       0.00000           0.041812            1.13778
     34       0.00000           0.059939            1.63102
     35       0.00000           0.081290            2.21201
     36       0.00000           0.133624            3.63610
     37       0.00000           0.152770            4.15707
     38       0.00000           0.205038            5.57937
     39       0.00000           0.209791            5.70872
     40       0.00000           0.227462            6.18955
     41       0.00000           0.259608            7.06429
     42       0.00000           0.275200            7.48856
     43       0.00000           0.296242            8.06117
     44       0.00000           0.311948            8.48855
     45       0.00000           0.324116            8.81965
     46       0.00000           0.348199            9.47497
     47       0.00000           0.378160           10.29026
     48       0.00000           0.384659           10.46711
     49       0.00000           0.452695           12.31845
     50       0.00000           0.466133           12.68413
     51       0.00000           0.524653           14.27652
     52       0.00000           0.532321           14.48520
     53       0.00000           0.579729           15.77524

  Highest occupied state (VBM) at    -10.63697916 eV
  | Occupation number:      2.00000000

  Lowest unoccupied state (CBM) at    -4.11279410 eV
  | Occupation number:      0.00000000

  Overall HOMO-LUMO gap:      6.52418506 eV.
  Calculating total energy contributions from superposition of free atom densities.

  Total energy components:
  | Sum of eigenvalues            :        -188.85305211 Ha       -5138.95301502 eV
  | XC energy correction          :         -41.78969104 Ha       -1137.15535113 eV
  | XC potential correction       :          53.72135639 Ha        1461.83248446 eV
  | Free-atom electrostatic energy:        -146.84929901 Ha       -3995.97273879 eV
  | Hartree energy correction     :           0.00000000 Ha           0.00000000 eV
  | vdW energy correction         :           0.00000000 Ha           0.00000000 eV
  | Entropy correction            :           0.00000000 Ha           0.00000000 eV
  | ---------------------------
  | Total energy                  :        -323.77068578 Ha       -8810.24862047 eV
  | Total energy, T -> 0          :        -323.77068578 Ha       -8810.24862047 eV  <-- do not rely on this value for anything but (periodic) metals
  | Electronic free energy        :        -323.77068578 Ha       -8810.24862047 eV

  Derived energy quantities:
  | Kinetic energy                :         320.48832328 Ha        8720.93099264 eV
  | Electrostatic energy          :        -602.46931802 Ha      -16394.02426198 eV
  | Energy correction for multipole
  | error in Hartree potential    :           0.00000000 Ha           0.00000000 eV
  | Sum of eigenvalues per atom                           :        -395.30407808 eV
  | Total energy (T->0) per atom                          :        -677.71143234 eV  <-- do not rely on this value for anything but (periodic) metals
  | Electronic free energy per atom                       :        -677.71143234 eV
  Initialize hartree_potential_storage
  Max. number of atoms included in rho_multipole:           13

  End scf initialization - timings             :  max(cpu_time)    wall_clock(cpu1)
  | Time for scf. initialization               :        1.141 s           1.142 s
  | Boundary condition initialization          :        0.000 s           0.000 s
  | Integration                                :        0.699 s           0.699 s
  | Solution of K.-S. eqns.                    :        0.004 s           0.005 s
  | Grid partitioning                          :        0.111 s           0.111 s
  | Preloading free-atom quantities on grid    :        0.002 s           0.003 s
  | Free-atom superposition energy             :        0.084 s           0.084 s
  | Total energy evaluation                    :        0.000 s           0.000 s

  Partial memory accounting:
  | Current value for overall tracked memory usage on task 0  :           0.165 MB
  | Peak value for overall tracked memory usage on task 0     :           0.676 MB after allocating wave
  | Largest tracked array allocation on task 0 so far         :           0.131 MB  when allocating H_times_psi
  Note:  These values currently only include a subset of arrays which are explicitly tracked.
  The "true" memory usage will be greater.
------------------------------------------------------------

------------------------------------------------------------
          Begin self-consistency iteration #    1

  Date     :  20200902, Time     :  110551.158
------------------------------------------------------------
  Evaluating new KS density.
  Integration grid: deviation in total charge (<rho> - N_e) =  -4.973799E-14
  Pulay mixing of updated and previous charge densities.

  Evaluating partitioned Hartree potential by multipole expansion.
  | Analytical far-field extrapolation by fixed multipoles:
  | Hartree multipole sum: apparent total charge =  -0.231509E-03
  Summing up the Hartree potential.
  Time summed over all CPUs for potential: real work        0.281 s, elapsed        0.281 s
  | RMS charge density error from multipole expansion :   0.590550E-02

  Integrating Hamiltonian matrix: batch-based integration.
  Time summed over all CPUs for integration: real work        0.490 s, elapsed        0.490 s

  Updating Kohn-Sham eigenvalues and eigenvectors using ELSI and the ELPA eigensolver.
  Finished Cholesky decomposition
  | Time :     0.000 s
  Finished transformation to standard eigenproblem
  | Time :     0.000 s
  Starting LAPACK eigensolver
  Finished solving standard eigenproblem
  | Time :     0.001 s
  Finished back-transformation of eigenvectors
  | Time :     0.000 s

  Obtaining occupation numbers and chemical potential using ELSI.
  | Chemical potential (Fermi level):    -8.01592755eV
  Writing Kohn-Sham eigenvalues.

  State    Occupation    Eigenvalue [Ha]    Eigenvalue [eV]
      1       2.00000         -18.907221         -514.49167
      2       2.00000         -18.838983         -512.63481
      3       2.00000         -14.094025         -383.51792
      4       2.00000         -10.116353         -275.27996
      5       2.00000         -10.061926         -273.79895
      6       2.00000         -10.031157         -272.96167
      7       2.00000          -1.139874          -31.01755
      8       2.00000          -1.031883          -28.07897
      9       2.00000          -0.920876          -25.05831
     10       2.00000          -0.792034          -21.55235
     11       2.00000          -0.713080          -19.40390
     12       2.00000          -0.637018          -17.33414
     13       2.00000          -0.564889          -15.37140
     14       2.00000          -0.537322          -14.62128
     15       2.00000          -0.518204          -14.10104
     16       2.00000          -0.515924          -14.03899
     17       2.00000          -0.490120          -13.33684
     18       2.00000          -0.475752          -12.94587
     19       2.00000          -0.465320          -12.66199
     20       2.00000          -0.434030          -11.81056
     21       2.00000          -0.425213          -11.57062
     22       2.00000          -0.369028          -10.04177
     23       2.00000          -0.331881           -9.03093
     24       2.00000          -0.313502           -8.53083
     25       0.00000          -0.114995           -3.12917
     26       0.00000          -0.031351           -0.85310
     27       0.00000          -0.000840           -0.02286
     28       0.00000           0.016916            0.46030
     29       0.00000           0.029017            0.78959
     30       0.00000           0.045477            1.23748
     31       0.00000           0.060635            1.64995
     32       0.00000           0.074907            2.03832
     33       0.00000           0.083699            2.27756
     34       0.00000           0.102219            2.78153
     35       0.00000           0.123096            3.34963
     36       0.00000           0.160628            4.37092
     37       0.00000           0.178726            4.86338
     38       0.00000           0.233096            6.34285
     39       0.00000           0.237471            6.46191
     40       0.00000           0.266797            7.25992
     41       0.00000           0.293794            7.99455
     42       0.00000           0.308431            8.39282
     43       0.00000           0.338515            9.21146
     44       0.00000           0.348563            9.48488
     45       0.00000           0.361663            9.84134
     46       0.00000           0.384204           10.45472
     47       0.00000           0.417386           11.35765
     48       0.00000           0.423665           11.52851
     49       0.00000           0.489333           13.31542
     50       0.00000           0.502416           13.67143
     51       0.00000           0.560600           15.25471
     52       0.00000           0.569295           15.49131
     53       0.00000           0.620796           16.89272

  Highest occupied state (VBM) at     -8.53082917 eV
  | Occupation number:      2.00000000

  Lowest unoccupied state (CBM) at    -3.12917387 eV
  | Occupation number:      0.00000000

  Overall HOMO-LUMO gap:      5.40165530 eV.

  Total energy components:
  | Sum of eigenvalues            :        -185.45122800 Ha       -5046.38467100 eV
  | XC energy correction          :         -42.11740594 Ha       -1146.07292728 eV
  | XC potential correction       :          54.14756809 Ha        1473.43029510 eV
  | Free-atom electrostatic energy:        -146.84929901 Ha       -3995.97273879 eV
  | Hartree energy correction     :          -3.32024135 Ha         -90.34836389 eV
  | vdW energy correction         :           0.00000000 Ha           0.00000000 eV
  | Entropy correction            :           0.00000000 Ha           0.00000000 eV
  | ---------------------------
  | Total energy                  :        -323.59060620 Ha       -8805.34840585 eV
  | Total energy, T -> 0          :        -323.59060620 Ha       -8805.34840585 eV  <-- do not rely on this value for anything but (periodic) metals
  | Electronic free energy        :        -323.59060620 Ha       -8805.34840585 eV

  Derived energy quantities:
  | Kinetic energy                :         322.27354957 Ha        8769.50947144 eV
  | Electrostatic energy          :        -603.74674982 Ha      -16428.78495001 eV
  | Energy correction for multipole
  | error in Hartree potential    :           0.01196556 Ha           0.32559956 eV
  | Sum of eigenvalues per atom                           :        -388.18343623 eV
  | Total energy (T->0) per atom                          :        -677.33449276 eV  <-- do not rely on this value for anything but (periodic) metals
  | Electronic free energy per atom                       :        -677.33449276 eV

  Self-consistency convergence accuracy:
  | Change of charge density      :  0.5816E+00
  | Change of sum of eigenvalues  :  0.9257E+02 eV
  | Change of total energy        :  0.4900E+01 eV

  End self-consistency iteration #     1       :  max(cpu_time)    wall_clock(cpu1)
  | Time for this iteration                    :        1.177 s           1.178 s
  | Charge density update                      :        0.388 s           0.389 s
  | Density mixing                             :        0.005 s           0.005 s
  | Hartree multipole update                   :        0.009 s           0.009 s
  | Hartree multipole summation                :        0.282 s           0.282 s
  | Integration                                :        0.490 s           0.490 s
  | Solution of K.-S. eqns.                    :        0.002 s           0.003 s
  | Total energy evaluation                    :        0.000 s           0.000 s

  Partial memory accounting:
  | Current value for overall tracked memory usage on task 0  :           0.165 MB
  | Peak value for overall tracked memory usage on task 0     :           0.691 MB after allocating gradient_basis_wave
  | Largest tracked array allocation on task 0 so far         :           0.394 MB  when allocating gradient_basis_wave
  Note:  These values currently only include a subset of arrays which are explicitly tracked.
  The "true" memory usage will be greater.
------------------------------------------------------------

------------------------------------------------------------
          Begin self-consistency iteration #    2

  Date     :  20200902, Time     :  110552.337
------------------------------------------------------------
  Evaluating new KS density.
  Integration grid: deviation in total charge (<rho> - N_e) =   6.394885E-14
  Pulay mixing of updated and previous charge densities.

  Evaluating partitioned Hartree potential by multipole expansion.
  | Analytical far-field extrapolation by fixed multipoles:
  | Hartree multipole sum: apparent total charge =  -0.375728E-03
  Summing up the Hartree potential.
  Time summed over all CPUs for potential: real work        0.281 s, elapsed        0.281 s
  | RMS charge density error from multipole expansion :   0.141584E-01

  Integrating Hamiltonian matrix: batch-based integration.
  Time summed over all CPUs for integration: real work        0.488 s, elapsed        0.488 s

  Updating Kohn-Sham eigenvalues and eigenvectors using ELSI and the ELPA eigensolver.
  Finished Cholesky decomposition
  | Time :     0.000 s
  Finished transformation to standard eigenproblem
  | Time :     0.000 s
  Starting LAPACK eigensolver
  Finished solving standard eigenproblem
  | Time :     0.002 s
  Finished back-transformation of eigenvectors
  | Time :     0.000 s

  Obtaining occupation numbers and chemical potential using ELSI.
  | Chemical potential (Fermi level):    -2.51856890eV
  Highest occupied state (VBM) at     -6.37791345 eV
  | Occupation number:      2.00000000

  Lowest unoccupied state (CBM) at    -1.87674987 eV
  | Occupation number:      0.00000000

  Overall HOMO-LUMO gap:      4.50116358 eV.

  Checking to see if s.c.f. parameters should be adjusted.

  Total energy components:
  | Sum of eigenvalues            :        -181.83932588 Ha       -4948.09981362 eV
  | XC energy correction          :         -42.48119388 Ha       -1155.97210062 eV
  | XC potential correction       :          54.61913776 Ha        1486.26235867 eV
  | Free-atom electrostatic energy:        -146.84929901 Ha       -3995.97273879 eV
  | Hartree energy correction     :          -6.96206580 Ha        -189.44744943 eV
  | vdW energy correction         :           0.00000000 Ha           0.00000000 eV
  | Entropy correction            :           0.00000000 Ha           0.00000000 eV
  | ---------------------------
  | Total energy                  :        -323.51274680 Ha       -8803.22974379 eV
  | Total energy, T -> 0          :        -323.51274680 Ha       -8803.22974379 eV  <-- do not rely on this value for anything but (periodic) metals
  | Electronic free energy        :        -323.51274680 Ha       -8803.22974379 eV

  Derived energy quantities:
  | Kinetic energy                :         323.60919185 Ha        8805.85414720 eV
  | Electrostatic energy          :        -604.64074477 Ha      -16453.11179036 eV
  | Energy correction for multipole
  | error in Hartree potential    :           0.02671869 Ha           0.72705257 eV
  | Sum of eigenvalues per atom                           :        -380.62306259 eV
  | Total energy (T->0) per atom                          :        -677.17151875 eV  <-- do not rely on this value for anything but (periodic) metals
  | Electronic free energy per atom                       :        -677.17151875 eV

  Self-consistency convergence accuracy:
  | Change of charge density      :  0.3632E+00
  | Change of sum of eigenvalues  :  0.9828E+02 eV
  | Change of total energy        :  0.2119E+01 eV

  End self-consistency iteration #     2       :  max(cpu_time)    wall_clock(cpu1)
  | Time for this iteration                    :        1.167 s           1.168 s
  | Charge density update                      :        0.380 s           0.380 s
  | Density mixing                             :        0.007 s           0.007 s
  | Hartree multipole update                   :        0.009 s           0.009 s
  | Hartree multipole summation                :        0.281 s           0.281 s
  | Integration                                :        0.488 s           0.489 s
  | Solution of K.-S. eqns.                    :        0.002 s           0.002 s
  | Total energy evaluation                    :        0.000 s           0.000 s

  Partial memory accounting:
  | Current value for overall tracked memory usage on task 0  :           0.166 MB
  | Peak value for overall tracked memory usage on task 0     :           0.691 MB after allocating gradient_basis_wave
  | Largest tracked array allocation on task 0 so far         :           0.394 MB  when allocating gradient_basis_wave
  Note:  These values currently only include a subset of arrays which are explicitly tracked.
  The "true" memory usage will be greater.
------------------------------------------------------------

------------------------------------------------------------
          Begin self-consistency iteration #    3

  Date     :  20200902, Time     :  110553.506
------------------------------------------------------------
  Evaluating new KS density.
  Integration grid: deviation in total charge (<rho> - N_e) =   1.421085E-14
  Pulay mixing of updated and previous charge densities.

  Evaluating partitioned Hartree potential by multipole expansion.
  | Analytical far-field extrapolation by fixed multipoles:
  | Hartree multipole sum: apparent total charge =  -0.474487E-03
  Summing up the Hartree potential.
  Time summed over all CPUs for potential: real work        0.281 s, elapsed        0.281 s
  | RMS charge density error from multipole expansion :   0.224962E-01

  Integrating Hamiltonian matrix: batch-based integration.
  Time summed over all CPUs for integration: real work        0.488 s, elapsed        0.488 s

  Updating Kohn-Sham eigenvalues and eigenvectors using ELSI and the ELPA eigensolver.
  Finished Cholesky decomposition
  | Time :     0.000 s
  Finished transformation to standard eigenproblem
  | Time :     0.000 s
  Starting LAPACK eigensolver
  Finished solving standard eigenproblem
  | Time :     0.002 s
  Finished back-transformation of eigenvectors
  | Time :     0.000 s

  Obtaining occupation numbers and chemical potential using ELSI.
  | Chemical potential (Fermi level):    -1.86896006eV
  Highest occupied state (VBM) at     -5.70815843 eV
  | Occupation number:      2.00000000

  Lowest unoccupied state (CBM) at    -1.20487886 eV
  | Occupation number:      0.00000000

  Overall HOMO-LUMO gap:      4.50327956 eV.

  Total energy components:
  | Sum of eigenvalues            :        -180.59712234 Ha       -4914.29773559 eV
  | XC energy correction          :         -42.62840796 Ha       -1159.97799972 eV
  | XC potential correction       :          54.80659460 Ha        1491.36331872 eV
  | Free-atom electrostatic energy:        -146.84929901 Ha       -3995.97273879 eV
  | Hartree energy correction     :          -8.23256997 Ha        -224.01962675 eV
  | vdW energy correction         :           0.00000000 Ha           0.00000000 eV
  | Entropy correction            :           0.00000000 Ha           0.00000000 eV
  | ---------------------------
  | Total energy                  :        -323.50080468 Ha       -8802.90478212 eV
  | Total energy, T -> 0          :        -323.50080468 Ha       -8802.90478212 eV  <-- do not rely on this value for anything but (periodic) metals
  | Electronic free energy        :        -323.50080468 Ha       -8802.90478212 eV

  Derived energy quantities:
  | Kinetic energy                :         323.14113855 Ha        8793.11776877 eV
  | Electrostatic energy          :        -604.01353526 Ha      -16436.04455117 eV
  | Energy correction for multipole
  | error in Hartree potential    :           0.03822162 Ha           1.04006310 eV
  | Sum of eigenvalues per atom                           :        -378.02290274 eV
  | Total energy (T->0) per atom                          :        -677.14652170 eV  <-- do not rely on this value for anything but (periodic) metals
  | Electronic free energy per atom                       :        -677.14652170 eV

  Self-consistency convergence accuracy:
  | Change of charge density      :  0.2010E+00
  | Change of sum of eigenvalues  :  0.3380E+02 eV
  | Change of total energy        :  0.3250E+00 eV

  End self-consistency iteration #     3       :  max(cpu_time)    wall_clock(cpu1)
  | Time for this iteration                    :        1.169 s           1.176 s
  | Charge density update                      :        0.381 s           0.387 s
  | Density mixing                             :        0.008 s           0.008 s
  | Hartree multipole update                   :        0.009 s           0.009 s
  | Hartree multipole summation                :        0.281 s           0.282 s
  | Integration                                :        0.488 s           0.488 s
  | Solution of K.-S. eqns.                    :        0.002 s           0.002 s
  | Total energy evaluation                    :        0.000 s           0.000 s

  Partial memory accounting:
  | Current value for overall tracked memory usage on task 0  :           0.166 MB
  | Peak value for overall tracked memory usage on task 0     :           0.692 MB after allocating gradient_basis_wave
  | Largest tracked array allocation on task 0 so far         :           0.394 MB  when allocating gradient_basis_wave
  Note:  These values currently only include a subset of arrays which are explicitly tracked.
  The "true" memory usage will be greater.
------------------------------------------------------------

------------------------------------------------------------
          Begin self-consistency iteration #    4

  Date     :  20200902, Time     :  110554.683
------------------------------------------------------------
  Evaluating new KS density.
  Integration grid: deviation in total charge (<rho> - N_e) =   1.421085E-14
  Pulay mixing of updated and previous charge densities.

  Evaluating partitioned Hartree potential by multipole expansion.
  | Analytical far-field extrapolation by fixed multipoles:
  | Hartree multipole sum: apparent total charge =  -0.505259E-03
  Summing up the Hartree potential.
  Time summed over all CPUs for potential: real work        0.281 s, elapsed        0.281 s
  | RMS charge density error from multipole expansion :   0.257864E-01

  Integrating Hamiltonian matrix: batch-based integration.
  Time summed over all CPUs for integration: real work        0.488 s, elapsed        0.488 s

  Updating Kohn-Sham eigenvalues and eigenvectors using ELSI and the ELPA eigensolver.
  Finished Cholesky decomposition
  | Time :     0.000 s
  Finished transformation to standard eigenproblem
  | Time :     0.000 s
  Starting LAPACK eigensolver
  Finished solving standard eigenproblem
  | Time :     0.002 s
  Finished back-transformation of eigenvectors
  | Time :     0.000 s

  Obtaining occupation numbers and chemical potential using ELSI.
  | Chemical potential (Fermi level):    -1.78169560eV
  Highest occupied state (VBM) at     -5.54592680 eV
  | Occupation number:      2.00000000

  Lowest unoccupied state (CBM) at    -1.13167924 eV
  | Occupation number:      0.00000000

  Overall HOMO-LUMO gap:      4.41424755 eV.

  Total energy components:
  | Sum of eigenvalues            :        -180.45177606 Ha       -4910.34266213 eV
  | XC energy correction          :         -42.66537420 Ha       -1160.98390220 eV
  | XC potential correction       :          54.85318495 Ha        1492.63110682 eV
  | Free-atom electrostatic energy:        -146.84929901 Ha       -3995.97273879 eV
  | Hartree energy correction     :          -8.38679051 Ha        -228.21618132 eV
  | vdW energy correction         :           0.00000000 Ha           0.00000000 eV
  | Entropy correction            :           0.00000000 Ha           0.00000000 eV
  | ---------------------------
  | Total energy                  :        -323.50005483 Ha       -8802.88437762 eV
  | Total energy, T -> 0          :        -323.50005483 Ha       -8802.88437762 eV  <-- do not rely on this value for anything but (periodic) metals
  | Electronic free energy        :        -323.50005483 Ha       -8802.88437762 eV

  Derived energy quantities:
  | Kinetic energy                :         322.78995789 Ha        8783.56165690 eV
  | Electrostatic energy          :        -603.62463852 Ha      -16425.46213232 eV
  | Energy correction for multipole
  | error in Hartree potential    :           0.04234137 Ha           1.15216743 eV
  | Sum of eigenvalues per atom                           :        -377.71866632 eV
  | Total energy (T->0) per atom                          :        -677.14495212 eV  <-- do not rely on this value for anything but (periodic) metals
  | Electronic free energy per atom                       :        -677.14495212 eV

  Self-consistency convergence accuracy:
  | Change of charge density      :  0.6011E-01
  | Change of sum of eigenvalues  :  0.3955E+01 eV
  | Change of total energy        :  0.2040E-01 eV

  End self-consistency iteration #     4       :  max(cpu_time)    wall_clock(cpu1)
  | Time for this iteration                    :        1.170 s           1.171 s
  | Charge density update                      :        0.380 s           0.381 s
  | Density mixing                             :        0.009 s           0.009 s
  | Hartree multipole update                   :        0.009 s           0.009 s
  | Hartree multipole summation                :        0.281 s           0.281 s
  | Integration                                :        0.488 s           0.488 s
  | Solution of K.-S. eqns.                    :        0.002 s           0.003 s
  | Total energy evaluation                    :        0.000 s           0.000 s

  Partial memory accounting:
  | Current value for overall tracked memory usage on task 0  :           0.166 MB
  | Peak value for overall tracked memory usage on task 0     :           0.692 MB after allocating gradient_basis_wave
  | Largest tracked array allocation on task 0 so far         :           0.394 MB  when allocating gradient_basis_wave
  Note:  These values currently only include a subset of arrays which are explicitly tracked.
  The "true" memory usage will be greater.
------------------------------------------------------------

------------------------------------------------------------
          Begin self-consistency iteration #    5

  Date     :  20200902, Time     :  110555.856
------------------------------------------------------------
  Evaluating new KS density.
  Integration grid: deviation in total charge (<rho> - N_e) =   5.684342E-14
  Pulay mixing of updated and previous charge densities.

  Evaluating partitioned Hartree potential by multipole expansion.
  | Analytical far-field extrapolation by fixed multipoles:
  | Hartree multipole sum: apparent total charge =  -0.499104E-03
  Summing up the Hartree potential.
  Time summed over all CPUs for potential: real work        0.281 s, elapsed        0.281 s
  | RMS charge density error from multipole expansion :   0.255255E-01

  Integrating Hamiltonian matrix: batch-based integration.
  Time summed over all CPUs for integration: real work        0.488 s, elapsed        0.488 s

  Updating Kohn-Sham eigenvalues and eigenvectors using ELSI and the ELPA eigensolver.
  Finished Cholesky decomposition
  | Time :     0.000 s
  Finished transformation to standard eigenproblem
  | Time :     0.000 s
  Starting LAPACK eigensolver
  Finished solving standard eigenproblem
  | Time :     0.001 s
  Finished back-transformation of eigenvectors
  | Time :     0.000 s

  Obtaining occupation numbers and chemical potential using ELSI.
  | Chemical potential (Fermi level):    -1.83119760eV
  Highest occupied state (VBM) at     -5.61814071 eV
  | Occupation number:      2.00000000

  Lowest unoccupied state (CBM) at    -1.20564413 eV
  | Occupation number:      0.00000000

  Overall HOMO-LUMO gap:      4.41249658 eV.

  Total energy components:
  | Sum of eigenvalues            :        -180.62419003 Ha       -4915.03428488 eV
  | XC energy correction          :         -42.64397184 Ha       -1160.40151427 eV
  | XC potential correction       :          54.82543933 Ha        1491.87610988 eV
  | Free-atom electrostatic energy:        -146.84929901 Ha       -3995.97273879 eV
  | Hartree energy correction     :          -8.20774180 Ha        -223.34401787 eV
  | vdW energy correction         :           0.00000000 Ha           0.00000000 eV
  | Entropy correction            :           0.00000000 Ha           0.00000000 eV
  | ---------------------------
  | Total energy                  :        -323.49976334 Ha       -8802.87644592 eV
  | Total energy, T -> 0          :        -323.49976334 Ha       -8802.87644592 eV  <-- do not rely on this value for anything but (periodic) metals
  | Electronic free energy        :        -323.49976334 Ha       -8802.87644592 eV

  Derived energy quantities:
  | Kinetic energy                :         322.69858782 Ha        8781.07535074 eV
  | Electrostatic energy          :        -603.55437932 Ha      -16423.55028239 eV
  | Energy correction for multipole
  | error in Hartree potential    :           0.04174532 Ha           1.13594784 eV
  | Sum of eigenvalues per atom                           :        -378.07956038 eV
  | Total energy (T->0) per atom                          :        -677.14434199 eV  <-- do not rely on this value for anything but (periodic) metals
  | Electronic free energy per atom                       :        -677.14434199 eV

  Self-consistency convergence accuracy:
  | Change of charge density      :  0.2055E-01
  | Change of sum of eigenvalues  : -0.4692E+01 eV
  | Change of total energy        :  0.7932E-02 eV

  End self-consistency iteration #     5       :  max(cpu_time)    wall_clock(cpu1)
  | Time for this iteration                    :        1.171 s           1.172 s
  | Charge density update                      :        0.381 s           0.381 s
  | Density mixing                             :        0.011 s           0.010 s
  | Hartree multipole update                   :        0.009 s           0.009 s
  | Hartree multipole summation                :        0.281 s           0.282 s
  | Integration                                :        0.488 s           0.488 s
  | Solution of K.-S. eqns.                    :        0.002 s           0.002 s
  | Total energy evaluation                    :        0.000 s           0.000 s

  Partial memory accounting:
  | Current value for overall tracked memory usage on task 0  :           0.166 MB
  | Peak value for overall tracked memory usage on task 0     :           0.692 MB after allocating gradient_basis_wave
  | Largest tracked array allocation on task 0 so far         :           0.394 MB  when allocating gradient_basis_wave
  Note:  These values currently only include a subset of arrays which are explicitly tracked.
  The "true" memory usage will be greater.
------------------------------------------------------------

------------------------------------------------------------
          Begin self-consistency iteration #    6

  Date     :  20200902, Time     :  110557.030
------------------------------------------------------------
  Evaluating new KS density.
  Integration grid: deviation in total charge (<rho> - N_e) =   7.105427E-15
  Pulay mixing of updated and previous charge densities.

  Evaluating partitioned Hartree potential by multipole expansion.
  | Analytical far-field extrapolation by fixed multipoles:
  | Hartree multipole sum: apparent total charge =  -0.500961E-03
  Summing up the Hartree potential.
  Time summed over all CPUs for potential: real work        0.281 s, elapsed        0.281 s
  | RMS charge density error from multipole expansion :   0.258782E-01

  Integrating Hamiltonian matrix: batch-based integration.
  Time summed over all CPUs for integration: real work        0.488 s, elapsed        0.488 s

  Updating Kohn-Sham eigenvalues and eigenvectors using ELSI and the ELPA eigensolver.
  Finished Cholesky decomposition
  | Time :     0.000 s
  Finished transformation to standard eigenproblem
  | Time :     0.000 s
  Starting LAPACK eigensolver
  Finished solving standard eigenproblem
  | Time :     0.002 s
  Finished back-transformation of eigenvectors
  | Time :     0.000 s

  Obtaining occupation numbers and chemical potential using ELSI.
  | Chemical potential (Fermi level):    -1.83835793eV
  Highest occupied state (VBM) at     -5.59742717 eV
  | Occupation number:      2.00000000

  Lowest unoccupied state (CBM) at    -1.23131010 eV
  | Occupation number:      0.00000000

  Overall HOMO-LUMO gap:      4.36611707 eV.

  Total energy components:
  | Sum of eigenvalues            :        -180.65746454 Ha       -4915.93973048 eV
  | XC energy correction          :         -42.63892813 Ha       -1160.26426805 eV
  | XC potential correction       :          54.81888168 Ha        1491.69766732 eV
  | Free-atom electrostatic energy:        -146.84929901 Ha       -3995.97273879 eV
  | Hartree energy correction     :          -8.17289541 Ha        -222.39579959 eV
  | vdW energy correction         :           0.00000000 Ha           0.00000000 eV
  | Entropy correction            :           0.00000000 Ha           0.00000000 eV
  | ---------------------------
  | Total energy                  :        -323.49970541 Ha       -8802.87486959 eV
  | Total energy, T -> 0          :        -323.49970541 Ha       -8802.87486959 eV  <-- do not rely on this value for anything but (periodic) metals
  | Electronic free energy        :        -323.49970541 Ha       -8802.87486959 eV

  Derived energy quantities:
  | Kinetic energy                :         322.60849931 Ha        8778.62391777 eV
  | Electrostatic energy          :        -603.46927659 Ha      -16421.23451931 eV
  | Energy correction for multipole
  | error in Hartree potential    :           0.04199364 Ha           1.14270505 eV
  | Sum of eigenvalues per atom                           :        -378.14921004 eV
  | Total energy (T->0) per atom                          :        -677.14422074 eV  <-- do not rely on this value for anything but (periodic) metals
  | Electronic free energy per atom                       :        -677.14422074 eV

  Self-consistency convergence accuracy:
  | Change of charge density      :  0.1045E-01
  | Change of sum of eigenvalues  : -0.9054E+00 eV
  | Change of total energy        :  0.1576E-02 eV

  End self-consistency iteration #     6       :  max(cpu_time)    wall_clock(cpu1)
  | Time for this iteration                    :        1.173 s           1.173 s
  | Charge density update                      :        0.380 s           0.380 s
  | Density mixing                             :        0.012 s           0.012 s
  | Hartree multipole update                   :        0.009 s           0.009 s
  | Hartree multipole summation                :        0.281 s           0.282 s
  | Integration                                :        0.488 s           0.488 s
  | Solution of K.-S. eqns.                    :        0.002 s           0.002 s
  | Total energy evaluation                    :        0.000 s           0.000 s

  Partial memory accounting:
  | Current value for overall tracked memory usage on task 0  :           0.166 MB
  | Peak value for overall tracked memory usage on task 0     :           0.692 MB after allocating gradient_basis_wave
  | Largest tracked array allocation on task 0 so far         :           0.394 MB  when allocating gradient_basis_wave
  Note:  These values currently only include a subset of arrays which are explicitly tracked.
  The "true" memory usage will be greater.
------------------------------------------------------------

------------------------------------------------------------
          Begin self-consistency iteration #    7

  Date     :  20200902, Time     :  110558.204
------------------------------------------------------------
  Evaluating new KS density.
  Integration grid: deviation in total charge (<rho> - N_e) =   0.000000E+00
  Pulay mixing of updated and previous charge densities.

  Evaluating partitioned Hartree potential by multipole expansion.
  | Analytical far-field extrapolation by fixed multipoles:
  | Hartree multipole sum: apparent total charge =  -0.502128E-03
  Summing up the Hartree potential.
  Time summed over all CPUs for potential: real work        0.281 s, elapsed        0.281 s
  | RMS charge density error from multipole expansion :   0.260360E-01

  Integrating Hamiltonian matrix: batch-based integration.
  Time summed over all CPUs for integration: real work        0.488 s, elapsed        0.488 s

  Updating Kohn-Sham eigenvalues and eigenvectors using ELSI and the ELPA eigensolver.
  Finished Cholesky decomposition
  | Time :     0.000 s
  Finished transformation to standard eigenproblem
  | Time :     0.000 s
  Starting LAPACK eigensolver
  Finished solving standard eigenproblem
  | Time :     0.002 s
  Finished back-transformation of eigenvectors
  | Time :     0.000 s

[...]
  |   Hirshfeld dipole moment :      0.06377986
  |   Hirshfeld second moments:      0.00371480      -0.01940513      -0.01669615
  |                                 -0.01940513      -0.00559638       0.01032042
  |                                 -0.01669615       0.01032042      -0.01803857
  ----------------------------------------------------------------------
  | Atom    12: O
  |   Hirshfeld charge        :     -0.13579782
  |   Free atom volume        :     23.61338643
  |   Hirshfeld volume        :     20.59744837
  |   Hirshfeld dipole vector :      0.01912717       0.00219757       0.02907904
  |   Hirshfeld dipole moment :      0.03487504
  |   Hirshfeld second moments:      0.05589944      -0.00442126      -0.00596684
  |                                 -0.00442126       0.10911170      -0.01100665
  |                                 -0.00596684      -0.01100665       0.03688106
  ----------------------------------------------------------------------
  | Atom    13: H
  |   Hirshfeld charge        :      0.17631632
  |   Free atom volume        :      9.95071624
  |   Hirshfeld volume        :      6.31900613
  |   Hirshfeld dipole vector :      0.01751797      -0.11109464       0.03058598
  |   Hirshfeld dipole moment :      0.11655214
  |   Hirshfeld second moments:      0.11716318       0.00093017      -0.01302380
  |                                  0.00093017       0.12454382       0.00024790
  |                                 -0.01302380       0.00024790       0.08658852
  ----------------------------------------------------------------------


  Total energy components:
  | Sum of eigenvalues            :        -180.64938974 Ha       -4915.72000392 eV
  | XC energy correction          :         -42.63657953 Ha       -1160.20035938 eV
  | XC potential correction       :          54.81591802 Ha        1491.61702206 eV
  | Free-atom electrostatic energy:        -146.84929901 Ha       -3995.97273879 eV
  | Hartree energy correction     :          -8.18033498 Ha        -222.59824037 eV
  | vdW energy correction         :          -0.00317947 Ha          -0.08651791 eV
  | Entropy correction            :           0.00000000 Ha           0.00000000 eV
  | ---------------------------
  | Total energy                  :        -323.50286470 Ha       -8802.96083830 eV
  | Total energy, T -> 0          :        -323.50286470 Ha       -8802.96083830 eV  <-- do not rely on this value for anything but (periodic) metals
  | Electronic free energy        :        -323.50286470 Ha       -8802.96083830 eV

  Derived energy quantities:
  | Kinetic energy                :         322.56847126 Ha        8777.53469914 eV
  | Electrostatic energy          :        -603.43157696 Ha      -16420.20866015 eV
  | Energy correction for multipole
  | error in Hartree potential    :           0.04211089 Ha           1.14589567 eV
  | Sum of eigenvalues per atom                           :        -378.13230799 eV
  | Total energy (T->0) per atom                          :        -677.15083372 eV  <-- do not rely on this value for anything but (periodic) metals
  | Electronic free energy per atom                       :        -677.15083372 eV

  atomic forces [eV/Ang]:
  -----------------------
  atom #    1
   Hellmann-Feynman              : -0.175261E+00  0.713864E+00  0.952456E+00
   Ionic forces                  :  0.000000E+00  0.000000E+00  0.000000E+00
   Multipole                     :  0.167111E-01  0.396869E+00 -0.308334E+00
   Pulay + GGA                   : -0.860362E+00 -0.698096E+00 -0.119631E+01
   Van der Waals                 :  0.216230E-02  0.132891E-02 -0.166343E-02
   ----------------------------------------------------------------
   Total forces(   1)            : -0.101675E+01  0.413966E+00 -0.553852E+00
  atom #    2
   Hellmann-Feynman              :  0.315355E+00 -0.545457E-01  0.619779E-01
   Ionic forces                  :  0.000000E+00  0.000000E+00  0.000000E+00
   Multipole                     :  0.174324E+00  0.106539E-01 -0.382668E-01
   Pulay + GGA                   : -0.149371E+00 -0.931646E-03 -0.721715E-02
   Van der Waals                 :  0.592846E-02 -0.694654E-02 -0.484087E-02
   ----------------------------------------------------------------
   Total forces(   2)            :  0.346237E+00 -0.517700E-01  0.116531E-01
  atom #    3
   Hellmann-Feynman              :  0.729884E+01 -0.739611E+01 -0.557565E+01
   Ionic forces                  :  0.000000E+00  0.000000E+00  0.000000E+00
   Multipole                     : -0.232299E+00  0.167686E+00 -0.101092E+01
   Pulay + GGA                   : -0.651243E+01  0.655573E+01  0.707531E+01
   Van der Waals                 :  0.315142E-02 -0.803038E-02 -0.628781E-02
   ----------------------------------------------------------------
   Total forces(   3)            :  0.557259E+00 -0.680730E+00  0.482460E+00
  atom #    4
   Hellmann-Feynman              : -0.221374E+00  0.228385E+00 -0.778124E-01
   Ionic forces                  :  0.000000E+00  0.000000E+00  0.000000E+00
   Multipole                     : -0.924222E-01 -0.180431E-01 -0.533163E-01
   Pulay + GGA                   :  0.245064E+00 -0.110287E-01 -0.523742E-01
   Van der Waals                 : -0.417771E-03 -0.280877E-02 -0.500181E-02
   ----------------------------------------------------------------
   Total forces(   4)            : -0.691501E-01  0.196505E+00 -0.188505E+00
  atom #    5
   Hellmann-Feynman              : -0.188575E+00  0.216090E+00 -0.701404E-03
   Ionic forces                  :  0.000000E+00  0.000000E+00  0.000000E+00
   Multipole                     : -0.485383E-01  0.569912E-01 -0.691585E-01
   Pulay + GGA                   :  0.527747E-01 -0.227219E+00  0.181918E-01
   Van der Waals                 : -0.356026E-02 -0.531097E-02 -0.502935E-02
   ----------------------------------------------------------------
   Total forces(   5)            : -0.187899E+00  0.405513E-01 -0.566974E-01
  atom #    6
   Hellmann-Feynman              :  0.167323E+00 -0.982770E+00  0.699139E+00
   Ionic forces                  :  0.000000E+00  0.000000E+00  0.000000E+00
   Multipole                     : -0.108707E+00  0.620352E+00  0.210009E+00
   Pulay + GGA                   :  0.161277E+00 -0.837319E-01 -0.483556E+00
   Van der Waals                 : -0.628049E-03  0.109965E-01  0.620437E-02
   ----------------------------------------------------------------
   Total forces(   6)            :  0.219264E+00 -0.435153E+00  0.431797E+00
  atom #    7
   Hellmann-Feynman              : -0.217054E+00 -0.486838E-01 -0.398192E-01
   Ionic forces                  :  0.000000E+00  0.000000E+00  0.000000E+00
   Multipole                     : -0.118742E+00  0.490100E-01  0.296775E-01
   Pulay + GGA                   :  0.111335E+00  0.256504E-02  0.266205E-02
   Van der Waals                 : -0.283477E-02  0.405170E-02  0.715735E-02
   ----------------------------------------------------------------
   Total forces(   7)            : -0.227296E+00  0.694295E-02 -0.322277E-03
  atom #    8
   Hellmann-Feynman              :  0.814176E-01  0.694740E-01  0.239107E+00
   Ionic forces                  :  0.000000E+00  0.000000E+00  0.000000E+00
   Multipole                     :  0.150274E-01  0.615500E-01  0.122324E+00
   Pulay + GGA                   : -0.455523E-01 -0.389097E-01 -0.103400E+00
   Van der Waals                 : -0.289860E-02  0.113789E-01  0.549659E-03
   ----------------------------------------------------------------
   Total forces(   8)            :  0.479940E-01  0.103493E+00  0.258581E+00
  atom #    9
   Hellmann-Feynman              :  0.128960E+00  0.427411E-01 -0.199527E+00
   Ionic forces                  :  0.000000E+00  0.000000E+00  0.000000E+00
   Multipole                     :  0.189394E-01  0.132852E+00 -0.601747E-02
   Pulay + GGA                   : -0.372333E-01 -0.691646E-01  0.826392E-01
   Van der Waals                 : -0.214765E-02  0.556324E-02  0.756422E-02
   ----------------------------------------------------------------
   Total forces(   9)            :  0.108519E+00  0.111992E+00 -0.115341E+00
  atom #   10
   Hellmann-Feynman              :  0.255012E+01  0.539166E+01  0.521331E+00
   Ionic forces                  :  0.000000E+00  0.000000E+00  0.000000E+00
   Multipole                     : -0.786601E-01 -0.168646E+00  0.273124E+00
   Pulay + GGA                   : -0.156814E+01 -0.283583E+01 -0.236895E+00
   Van der Waals                 :  0.386660E-02 -0.107855E-01 -0.135640E-02
   ----------------------------------------------------------------
   Total forces(  10)            :  0.907189E+00  0.237640E+01  0.556204E+00
  atom #   11
   Hellmann-Feynman              :  0.416332E+01 -0.239463E+01  0.142298E+02
   Ionic forces                  :  0.000000E+00  0.000000E+00  0.000000E+00
   Multipole                     :  0.114996E+00 -0.565930E+00  0.799719E+00
   Pulay + GGA                   : -0.314858E+01  0.335103E+01 -0.135866E+02
   Van der Waals                 : -0.381564E-02 -0.116084E-01  0.163570E-02
   ----------------------------------------------------------------
   Total forces(  11)            :  0.112592E+01  0.378859E+00  0.144461E+01
  atom #   12
   Hellmann-Feynman              : -0.812264E+01  0.178188E+01 -0.141342E+02
   Ionic forces                  :  0.000000E+00  0.000000E+00  0.000000E+00
   Multipole                     : -0.977567E+00 -0.979035E+00 -0.696604E+00
   Pulay + GGA                   :  0.807593E+01 -0.245501E+01  0.124024E+02
   Van der Waals                 :  0.901992E-03  0.588764E-02  0.465851E-02
   ----------------------------------------------------------------
   Total forces(  12)            : -0.102337E+01 -0.164628E+01 -0.242379E+01
  atom #   13
   Hellmann-Feynman              : -0.753677E+00 -0.107626E+01  0.261473E+00
   Ionic forces                  :  0.000000E+00  0.000000E+00  0.000000E+00
   Multipole                     :  0.292899E-01 -0.621039E-01  0.602488E-01
   Pulay + GGA                   : -0.641589E-01  0.313085E+00 -0.165439E+00
   Van der Waals                 :  0.291954E-03  0.628366E-02 -0.359013E-02
   ----------------------------------------------------------------
   Total forces(  13)            : -0.788254E+00 -0.818993E+00  0.152692E+00

  Timings for VdW correction (Tkatchenko-Scheffler 2009 or later):
  | CPU time:        0.088 s, Wall clock time:        0.089 s.
  Removing unitary transformations (pure translations, rotations) from forces on atoms.
  Atomic forces before filtering:
  | Net force on center of mass :  -0.336592E-03 -0.420967E-02 -0.503562E-03 eV/A
  | Net torque on center of mass:  -0.711657E-02  0.325032E-02 -0.393097E-03 eV
  Atomic forces after filtering:
  | Net force on center of mass :   0.178406E-15  0.178406E-15  0.133805E-15 eV/A
  | Net torque on center of mass:  -0.174656E-14  0.247822E-15  0.755268E-15 eV

  Energy and forces in a compact form:
  | Total energy uncorrected      :         -0.880296083830244E+04 eV
  | Total energy corrected        :         -0.880296083830244E+04 eV  <-- do not rely on this value for anything but (periodic) metals
  | Electronic free energy        :         -0.880296083830244E+04 eV
  Total atomic forces (unitary forces cleaned) [eV/Ang]:
  |   1         -0.101670326411918E+01          0.414329631266155E+00         -0.553729649921089E+00
  |   2          0.346282633943405E+00         -0.513759201375439E-01          0.119305897705943E-01
  |   3          0.557505351350784E+00         -0.680155071793650E+00          0.482514284657589E+00
  |   4         -0.688888429950773E-01          0.197057268708576E+00         -0.188647027733422E+00
  |   5         -0.187631985358058E+00          0.411796904293527E-01         -0.564922751986421E-01
  |   6          0.219170932245384E+00         -0.434919814434905E+00          0.432050226423697E+00
  |   7         -0.227391985085627E+00          0.714242906212961E-02         -0.219302153508331E-03
  |   8          0.477544189162505E-01          0.103572048831460E+00          0.258887324745354E+00
  |   9          0.108471811683641E+00          0.112315604874362E+00         -0.114892934004857E+00
  |  10          0.907166102799477E+00          0.237663530110517E+01          0.556064760813185E+00
  |  11          0.112574604927449E+01          0.378918954393782E+00          0.144447139951305E+01
  |  12         -0.102327590088920E+01         -0.164595534376757E+01         -0.242415960688859E+01
  |  13         -0.788205321766292E+00         -0.818744778537317E+00          0.152222209976639E+00

  ------------------------------------ 
  Start decomposition of the XC Energy 
  ------------------------------------ 
  X and C from original XC functional choice 
  Hartree-Fock Energy :          0.000000000 Ha              0.000000000 eV
  X Energy            :        -41.036402764 Ha          -1116.657334119 eV
  C Energy            :         -1.600176767 Ha            -43.543025262 eV
  Total XC Energy     :        -42.636579531 Ha          -1160.200359381 eV
  ------------------------------------ 
  LDA X and C from self-consistent density 
  X Energy LDA        :        -37.255128470 Ha          -1013.763625391 eV
  C Energy LDA        :         -3.138436396 Ha            -85.401199493 eV
  ------------------------------------ 
  End decomposition of the XC Energy 
  ------------------------------------ 

------------------------------------------------------------

------------------------------------------------------------------------------
  Final output of selected total energy values:

  The following output summarizes some interesting total energy values
  at the end of a run (AFTER all relaxation, molecular dynamics, etc.).

  | Total energy of the DFT / Hartree-Fock s.c.f. calculation      :          -8802.960838302 eV
  | Final zero-broadening corrected energy (caution - metals only) :          -8802.960838302 eV
  | For reference only, the value of 1 Hartree used in FHI-aims is :             27.211384500 eV

  Before relying on these values, please be sure to understand exactly which
  total energy value is referred to by a given number. Different objects may
  all carry the same name 'total energy'. Definitions:

  Total energy of the DFT / Hartree-Fock s.c.f. calculation:
  | Note that this energy does not include ANY quantities calculated after the
  | s.c.f. cycle, in particular not ANY RPA, MP2, etc. many-body perturbation terms.

  Final zero-broadening corrected energy:
  | For metallic systems only, a broadening of the occupation numbers at the Fermi
  | level can be extrapolated back to zero broadening by an electron-gas inspired
  | formula. For all systems that are not real metals, this value can be
  | meaningless and should be avoided.

------------------------------------------------------------------------------
  Methods described in the following list of references were used in this FHI-aims run.
  If you publish the results, please make sure to cite these reference if they apply.
  FHI-aims is an academic code, and for our developers (often, Ph.D. students
  and postdocs), scientific credit in the community is essential.
  Thank you for helping us!

  For any use of FHI-aims, please cite:

    Volker Blum, Ralf Gehrke, Felix Hanke, Paula Havu, Ville Havu,
    Xinguo Ren, Karsten Reuter, and Matthias Scheffler
    'Ab initio molecular simulations with numeric atom-centered orbitals'
    Computer Physics Communications 180, 2175-2196 (2009)
    http://dx.doi.org/10.1016/j.cpc.2009.06.022


  The scalable eigensolver library ELPA was used in your run.
  ELPA is essential especially for large systems on hundreds or thousands of CPUs.
  For ELPA, please cite:

    Andreas Marek, Volker Blum, Rainer Johanni, Ville Havu, Bruno Lang,
    Thomas Auckenthaler, Alexander Heinecke, Hans-Joachim Bungartz, and Hermann Lederer,
    'The ELPA Library - Scalable Parallel Eigenvalue Solutions
    for Electronic Structure Theory and Computational Science'
    The Journal of Physics: Condensed Matter 26, 213201 (2014).
    http://dx.doi.org/10.1088/0953-8984/26/21/213201


  The ELSI infrastructure was used in your run to solve the Kohn-Sham electronic structure.
  Please check out http://elsi-interchange.org to learn more.
  If scalability is important for your project, please acknowledge ELSI by citing:

    V. W-z. Yu, F. Corsetti, A. Garcia, W. P. Huhn, M. Jacquelin, W. Jia,
    B. Lange, L. Lin, J. Lu, W. Mi, A. Seifitokaldani, A. Vazquez-Mayagoitia,
    C. Yang, H. Yang, and V. Blum
    'ELSI: A unified software interface for Kohn-Sham electronic structure solvers'
    Computer Physics Communications 222, 267-285 (2018).
    http://dx.doi.org/10.1016/j.cpc.2017.09.007


  For the real-space grid partitioning and parallelization used in this calculation, please cite:

    Ville Havu, Volker Blum, Paula Havu, and Matthias Scheffler,
    'Efficient O(N) integration for all-electron electronic structure calculation'
    'using numerically tabulated basis functions'
    Journal of Computational Physics 228, 8367-8379 (2009).
    http://dx.doi.org/10.1016/j.jcp.2009.08.008

  Of course, there are many other important community references, e.g., those cited in the
  above references. Our list is limited to references that describe implementations in the
  FHI-aims code. The reason is purely practical (length of this list) - please credit others as well.

------------------------------------------------------------
          Leaving FHI-aims.
          Date     :  20200902, Time     :  110611.123

          Computational steps:
          | Number of self-consistency cycles          :           15
          | Number of SCF (re)initializations          :            1

          Detailed time accounting                     :  max(cpu_time)    wall_clock(cpu1)
          | Total time                                 :       21.218 s          21.266 s
          | Preparation time                           :        0.144 s           0.145 s
          | Boundary condition initalization           :        0.000 s           0.000 s
          | Grid partitioning                          :        0.111 s           0.111 s
          | Preloading free-atom quantities on grid    :        0.002 s           0.003 s
          | Free-atom superposition energy             :        0.084 s           0.084 s
          | Total time for integrations                :        8.016 s           8.023 s
          | Total time for solution of K.-S. equations :        0.035 s           0.038 s
          | Total time for density & force components  :        6.634 s           6.645 s
          | Total time for mixing                      :        0.194 s           0.194 s
          | Total time for Hartree multipole update    :        0.132 s           0.135 s
          | Total time for Hartree multipole sum       :        5.470 s           5.476 s
          | Total time for total energy evaluation     :        0.002 s           0.002 s
          | Total time for vdW correction              :        0.088 s           0.089 s

          Partial memory accounting:
          | Residual value for overall tracked memory usage across tasks :           0.000 MB (should be 0.000 MB)
          | Peak values for overall tracked memory usage (after allocating hessian_basis_wave):
          |   Minimum:        1.612 MB (on task 1)
          |   Maximum:        1.612 MB (on task 1)
          |   Average:        1.612 MB
          | Largest tracked array allocation (hessian_basis_wave):
          |   Minimum:        0.788 MB (on task 1)
          |   Maximum:        0.788 MB (on task 1)
          |   Average:        0.788 MB
          Note:  These values currently only include a subset of arrays which are explicitly tracked.
          The "true" memory usage will be greater.

          Have a nice day.
------------------------------------------------------------
