  MPI-parallelism will be employed.
------------------------------------------------------------
          Invoking FHI-aims ...
          Version 171221_1
          Compiled on 2019/09/09 at 14:39:39 on host puhti-login2.bullx.

          When using FHI-aims, please cite the following reference:

          Volker Blum, Ralf Gehrke, Felix Hanke, Paula Havu,
          Ville Havu, Xinguo Ren, Karsten Reuter, and Matthias Scheffler,
          'Ab Initio Molecular Simulations with Numeric Atom-Centered Orbitals',
          Computer Physics Communications 180, 2175-2196 (2009)

          For any questions about FHI-aims, please visit the aimsclub website
          with its forums and wiki. Contributions to both the forums and the
          wiki are warmly encouraged - they are for you, and everyone is welcome there.

------------------------------------------------------------



  Date     :  20200710, Time     :  152116.296
  Time zero on CPU 1             :   0.163880000000000E-01  s.
  Internal wall clock time zero  :           363626476.296  s.

  FHI-aims created a unique identifier for this run for later identification
  aims_uuid : D5E3B9AE-0C38-4CAB-A322-C70CBC080CCF

  Using        1 parallel tasks.
  Task        0 on host r18c44.bullx reporting.

  Performing system and environment tests:
  | Environment variable OMP_NUM_THREADS correctly set to 1.
  | Stacksize not measured: no C compiler
  | Checking for scalapack...
  | Testing pdtran()...
  | All pdtran() tests passed.

  Obtaining array dimensions for all initial allocations:
  
  -----------------------------------------------------------------------
  Parsing control.in (first pass over file, find array dimensions only).
  The contents of control.in will be repeated verbatim below
  unless switched off by setting 'verbatim_writeout .false.' .
  in the first line of control.in .
  -----------------------------------------------------------------------
  
  #########################################################################################
  #
  #  Volker Blum, FHI 2009 : Test run input file control.in for simple H2O
  #
  #########################################################################################
  #
  #  Physical model
  #
    xc                 pbe
    vdw_correction_hirshfeld
    spin               none
    relativistic       none
    charge             0.
  #
  #  SCF convergence
  #
    occupation_type    gaussian 0.01
    mixer              pulay
      n_max_pulay        10
      charge_mix_param   0.2
    sc_accuracy_rho    1E-5
    sc_accuracy_eev    1E-3
    sc_accuracy_etot   1E-6
    sc_accuracy_forces 1E-4
    sc_iter_limit      100
  #
  #  Relaxation
  #
  #  relax_geometry   bfgs 1.e-3
  #
  ################################################################################
  #
  #  FHI-aims code project
  #  VB, Fritz-Haber Institut, 2009
  #
  #  Suggested "light" defaults for H atom (to be pasted into control.in file)
  #  Be sure to double-check any results obtained with these settings for post-processing,
  #  e.g., with the "tight" defaults and larger basis sets.
  #
  ################################################################################
    species        H
  #     global species definitions
      nucleus             1
      mass                1.00794
  #
      l_hartree           4
  #
      cut_pot             3.5  1.5  1.0
      basis_dep_cutoff    1e-4
  #
      radial_base         24 5.0
      radial_multiplier   1
      angular_grids       specified
        division   0.2421   50
        division   0.3822  110
        division   0.4799  194
        division   0.5341  302
  #      division   0.5626  434
  #      division   0.5922  590
  #      division   0.6542  770
  #      division   0.6868 1202
  #      outer_grid  770
        outer_grid  302
  ################################################################################
  #
  #  Definition of "minimal" basis
  #
  ################################################################################
  #     valence basis states
      valence      1  s   1.
  #     ion occupancy
      ion_occ      1  s   0.5
  ################################################################################
  #
  #  Suggested additional basis functions. For production calculations,
  #  uncomment them one after another (the most important basis functions are
  #  listed first).
  #
  #  Basis constructed for dimers: 0.5 A, 0.7 A, 1.0 A, 1.5 A, 2.5 A
  #
  ################################################################################
  #  "First tier" - improvements: -1014.90 meV to -62.69 meV
       hydro 2 s 2.1
       hydro 2 p 3.5
  #  "Second tier" - improvements: -12.89 meV to -1.83 meV
  #     hydro 1 s 0.85
  #     hydro 2 p 3.7
  #     hydro 2 s 1.2
  #     hydro 3 d 7
  #  "Third tier" - improvements: -0.25 meV to -0.12 meV
  #     hydro 4 f 11.2
  #     hydro 3 p 4.8
  #     hydro 4 d 9
  #     hydro 3 s 3.2
  ################################################################################
  #
  #  FHI-aims code project
  #  VB, Fritz-Haber Institut, 2009
  #
  #  Suggested "light" defaults for C atom (to be pasted into control.in file)
  #  Be sure to double-check any results obtained with these settings for post-processing,
  #  e.g., with the "tight" defaults and larger basis sets.
  #
  ################################################################################
    species        C
  #     global species definitions
      nucleus             6
      mass                12.0107
  #
      l_hartree           4
  #
      cut_pot             3.5  1.5  1.0
      basis_dep_cutoff    1e-4
  #
      radial_base         34 5.0
      radial_multiplier   1
      angular_grids specified
        division   0.3326   50
        division   0.5710  110
        division   0.7727  194
        division   0.8772  302
  #      division   0.9334  434
  #      division   0.9625  590
  #      division   0.9924  770
  #      division   1.0230  974
  #      division   1.4589 1202
  #     outer_grid  974
       outer_grid 302
  ################################################################################
  #
  #  Definition of "minimal" basis
  #
  ################################################################################
  #     valence basis states
      valence      2  s   2.
      valence      2  p   2.
  #     ion occupancy
      ion_occ      2  s   1.
      ion_occ      2  p   1.
  ################################################################################
  #
  #  Suggested additional basis functions. For production calculations,
  #  uncomment them one after another (the most important basis functions are
  #  listed first).
  #
  #  Constructed for dimers: 1.0 A, 1.25 A, 1.5 A, 2.0 A, 3.0 A
  #
  ################################################################################
  #  "First tier" - improvements: -1214.57 meV to -155.61 meV
       hydro 2 p 1.7
       hydro 3 d 6
       hydro 2 s 4.9
  #  "Second tier" - improvements: -67.75 meV to -5.23 meV
  #     hydro 4 f 9.8
  #     hydro 3 p 5.2
  #     hydro 3 s 4.3
  #     hydro 5 g 14.4
  #     hydro 3 d 6.2
  #  "Third tier" - improvements: -2.43 meV to -0.60 meV
  #     hydro 2 p 5.6
  #     hydro 2 s 1.4
  #     hydro 3 d 4.9
  #     hydro 4 f 11.2
  #  "Fourth tier" - improvements: -0.39 meV to -0.18 meV
  #     hydro 2 p 2.1
  #     hydro 5 g 16.4
  #     hydro 4 d 13.2
  #     hydro 3 s 13.6
  #     hydro 4 f 17.6
  #  Further basis functions - improvements: -0.08 meV and below
  #     hydro 3 s 2
  #     hydro 3 p 6
  #     hydro 4 d 20
  ################################################################################
  #
  #  FHI-aims code project
  #  VB, Fritz-Haber Institut, 2009
  #
  #  Suggested "light" defaults for N atom (to be pasted into control.in file)
  #  Be sure to double-check any results obtained with these settings for post-processing,
  #  e.g., with the "tight" defaults and larger basis sets.
  #
  ################################################################################
    species        N
  #     global species definitions
      nucleus             7
      mass                14.0067
  #
      l_hartree           4
  #
      cut_pot             3.5  1.5  1.0
      basis_dep_cutoff    1e-4
  #
      radial_base         35 5.0
      radial_multiplier   1
      angular_grids       specified
        division   0.2599   50
        division   0.4601  110
        division   0.5885  194
        division   0.6503  302
  #      division   0.6939  434
  #      division   0.7396  590
  #      division   0.7632  770
  #      division   0.8122  974
  #      division   1.1604 1202
  #      outer_grid  974
        outer_grid  302
  ################################################################################
  #
  #  Definition of "minimal" basis
  #
  ################################################################################
  #     valence basis states
      valence      2  s   2.
      valence      2  p   3.
  #     ion occupancy
      ion_occ      2  s   1.
      ion_occ      2  p   2.
  ################################################################################
  #
  #  Suggested additional basis functions. For production calculations,
  #  uncomment them one after another (the most important basis functions are
  #  listed first).
  #
  #  Constructed for dimers: 1.0 A, 1.1 A, 1.5 A, 2.0 A, 3.0 A
  #
  ################################################################################
  #  "First tier" - improvements: -1193.42 meV to -220.60 meV
       hydro 2 p 1.8
       hydro 3 d 6.8
       hydro 3 s 5.8
  #  "Second tier" - improvements: -80.21 meV to -6.86 meV
  #     hydro 4 f 10.8
  #     hydro 3 p 5.8
  #     hydro 1 s 0.8
  #     hydro 5 g 16
  #     hydro 3 d 4.9
  #  "Third tier" - improvements: -4.29 meV to -0.53 meV
  #     hydro 3 s 16
  #     ionic 2 p auto
  #     hydro 3 d 6.6
  #     hydro 4 f 11.6
  #  "Fourth tier" - improvements: -0.75 meV to -0.25 meV
  #     hydro 2 p 4.5
  #     hydro 2 s 2.4
  #     hydro 5 g 14.4
  #     hydro 4 d 14.4
  #     hydro 4 f 16.8
  # Further basis functions - -0.21 meV and below
  #     hydro 3 p 14.8
  #     hydro 3 s 4.4
  #     hydro 3 d 19.6
  #     hydro 5 g 12.8
  ################################################################################
  #
  #  FHI-aims code project
  #  VB, Fritz-Haber Institut, 2009
  #
  #  Suggested "light" defaults for O atom (to be pasted into control.in file)
  #  Be sure to double-check any results obtained with these settings for post-processing,
  #  e.g., with the "tight" defaults and larger basis sets.
  #
  ################################################################################
    species        O
  #     global species definitions
      nucleus             8
      mass                15.9994
  #
      l_hartree           4
  #
      cut_pot             3.5  1.5  1.0
      basis_dep_cutoff    1e-4
  #
      radial_base         36 5.0
      radial_multiplier   1
       angular_grids specified
        division   0.2659   50
        division   0.4451  110
        division   0.6052  194
        division   0.7543  302
  #      division   0.8014  434
  #      division   0.8507  590
  #      division   0.8762  770
  #      division   0.9023  974
  #      division   1.2339 1202
  #      outer_grid 974
        outer_grid 302
  ################################################################################
  #
  #  Definition of "minimal" basis
  #
  ################################################################################
  #     valence basis states
      valence      2  s   2.
      valence      2  p   4.
  #     ion occupancy
      ion_occ      2  s   1.
      ion_occ      2  p   3.
  ################################################################################
  #
  #  Suggested additional basis functions. For production calculations,
  #  uncomment them one after another (the most important basis functions are
  #  listed first).
  #
  #  Constructed for dimers: 1.0 A, 1.208 A, 1.5 A, 2.0 A, 3.0 A
  #
  ################################################################################
  #  "First tier" - improvements: -699.05 meV to -159.38 meV
       hydro 2 p 1.8
       hydro 3 d 7.6
       hydro 3 s 6.4
  #  "Second tier" - improvements: -49.91 meV to -5.39 meV
  #     hydro 4 f 11.6
  #     hydro 3 p 6.2
  #     hydro 3 d 5.6
  #     hydro 5 g 17.6
  #     hydro 1 s 0.75
  #  "Third tier" - improvements: -2.83 meV to -0.50 meV
  #     ionic 2 p auto
  #     hydro 4 f 10.8
  #     hydro 4 d 4.7
  #     hydro 2 s 6.8
  #  "Fourth tier" - improvements: -0.40 meV to -0.12 meV
  #     hydro 3 p 5
  #     hydro 3 s 3.3
  #     hydro 5 g 15.6
  #     hydro 4 f 17.6
  #     hydro 4 d 14
  # Further basis functions - -0.08 meV and below
  #     hydro 3 s 2.1
  #     hydro 4 d 11.6
  #     hydro 3 p 16
  #     hydro 2 s 17.2
  
  -----------------------------------------------------------------------
  Completed first pass over input file control.in .
  -----------------------------------------------------------------------
  
  
  -----------------------------------------------------------------------
  Parsing geometry.in (first pass over file, find array dimensions only).
  The contents of geometry.in will be repeated verbatim below
  unless switched off by setting 'verbatim_writeout .false.' .
  in the first line of geometry.in .
  -----------------------------------------------------------------------
  
  atom  0.00000 0.00000 0.00000 C
  atom  1.09300 0.00000 0.00000 H
  atom  -0.47961 0.00000 -1.41207 N
  atom  -1.18350 -0.73148 -1.51843 H
  atom  -0.88431 0.91059 -1.61981 H
  atom  -0.49584 1.26211 0.72868 C
  atom  -1.58789 1.28919 0.74431 H
  atom  -0.13407 1.27425 1.75947 H
  atom  -0.13407 2.16087 0.22380 H
  atom  -0.39425 -1.28861 0.74398 C
  atom  -0.10189 -1.56493 1.88303 O
  atom  -1.10210 -2.13717 0.06896 O
  atom  -0.52138 -2.22154 -0.70604 H
  
  -----------------------------------------------------------------------
  Completed first pass over input file geometry.in .
  -----------------------------------------------------------------------
  

  Basic array size parameters:
  | Number of species                 :        4
  | Number of atoms                   :       13
  | Max. basis fn. angular momentum   :        2
  | Max. atomic/ionic basis occupied n:        2
  | Max. number of basis fn. types    :        2
  | Max. radial fns per species/type  :        3
  | Max. logarithmic grid size        :     1301
  | Max. radial integration grid size :       36
  | Max. angular integration grid size:      302
  | Max. angular grid division number :        8
  | Radial grid for Hartree potential :     1301
  | Number of spin channels           :        1

------------------------------------------------------------
          Reading file control.in.
------------------------------------------------------------
  XC: Using PBE gradient-corrected functionals.
  Spin treatment: No spin polarisation.
  Non-relativistic treatment of kinetic energy.
  Charge =   0.000000E+00: Neutral system requested explicitly.
  Occupation type: Gaussian broadening, width =   0.100000E-01 eV.
  Using pulay charge density mixing.
  Pulay mixing - number of memorized iterations:   10
  Charge density mixing - mixing parameter:     0.2000
  Convergence accuracy of self-consistent charge density:  0.1000E-04
  Convergence accuracy of sum of eigenvalues:  0.1000E-02
  Convergence accuracy of total energy:  0.1000E-05
  Convergence accuracy of forces:  0.1000E-03
  Maximum number of s.-c. iterations  :   100
 
  Reading configuration options for species H                   .
  | Found nuclear charge :   1.0000
  | Found atomic mass :    1.00794000000000      amu
  | Found l_max for Hartree potential  :   4
  | Found cutoff potl. onset [A], width [A], scale factor :    3.50000    1.50000    1.00000
  | Threshold for basis-dependent cutoff potential is   0.100000E-03
  | Found data for basic radial integration grid :    24 points, outermost radius =    5.000 A
  | Found multiplier for basic radial grid :   1
  | Found angular grid specification: user-specified.
  | Specified grid contains     5 separate shells.
  | Check grid settings after all constraints further below.
  | Found free-atom valence shell :  1 s   1.000
  | No ionic wave fns used. Skipping ion_occ.
  | Found hydrogenic basis function :  2 s   2.100
  | Found hydrogenic basis function :  2 p   3.500
  Species H                   : Missing cutoff potential type.
  Defaulting to exp(1/x)/(1-x)^2 type cutoff potential.
  Species H : No 'logarithmic' tag. Using default grid for free atom:
  | Default logarithmic grid data [bohr] : 0.1000E-03 0.1000E+03 0.1012E+01
  Species H : On-site basis accuracy parameter (for Gram-Schmidt orthonormalisation) not specified.
  Using default value basis_acc =  0.1000000E-03.
  Species H                   : Using default innermost maximum threshold i_radial=  2 for radial functions.
  Species H                   : Default cutoff onset for free atom density etc. : 0.35000000E+01 AA.
  Species H                   : Basic radial grid will be enhanced according to radial_multiplier =   1, to contain    24 grid points.
 
  Reading configuration options for species C                   .
  | Found nuclear charge :   6.0000
  | Found atomic mass :    12.0107000000000      amu
  | Found l_max for Hartree potential  :   4
  | Found cutoff potl. onset [A], width [A], scale factor :    3.50000    1.50000    1.00000
  | Threshold for basis-dependent cutoff potential is   0.100000E-03
  | Found data for basic radial integration grid :    34 points, outermost radius =    5.000 A
  | Found multiplier for basic radial grid :   1
  | Found angular grid specification: user-specified.
  | Specified grid contains     5 separate shells.
  | Check grid settings after all constraints further below.
  | Found free-atom valence shell :  2 s   2.000
  | Found free-atom valence shell :  2 p   2.000
  | No ionic wave fns used. Skipping ion_occ.
  | No ionic wave fns used. Skipping ion_occ.
  | Found hydrogenic basis function :  2 p   1.700
  | Found hydrogenic basis function :  3 d   6.000
  | Found hydrogenic basis function :  2 s   4.900
  Species C                   : Missing cutoff potential type.
  Defaulting to exp(1/x)/(1-x)^2 type cutoff potential.
  Species C : No 'logarithmic' tag. Using default grid for free atom:
  | Default logarithmic grid data [bohr] : 0.1000E-03 0.1000E+03 0.1012E+01
  Species C : On-site basis accuracy parameter (for Gram-Schmidt orthonormalisation) not specified.
  Using default value basis_acc =  0.1000000E-03.
  Species C                   : Using default innermost maximum threshold i_radial=  2 for radial functions.
  Species C                   : Default cutoff onset for free atom density etc. : 0.35000000E+01 AA.
  Species C                   : Basic radial grid will be enhanced according to radial_multiplier =   1, to contain    34 grid points.
 
  Reading configuration options for species N                   .
  | Found nuclear charge :   7.0000
  | Found atomic mass :    14.0067000000000      amu
  | Found l_max for Hartree potential  :   4
  | Found cutoff potl. onset [A], width [A], scale factor :    3.50000    1.50000    1.00000
  | Threshold for basis-dependent cutoff potential is   0.100000E-03
  | Found data for basic radial integration grid :    35 points, outermost radius =    5.000 A
  | Found multiplier for basic radial grid :   1
  | Found angular grid specification: user-specified.
  | Specified grid contains     5 separate shells.
  | Check grid settings after all constraints further below.
  | Found free-atom valence shell :  2 s   2.000
  | Found free-atom valence shell :  2 p   3.000
  | No ionic wave fns used. Skipping ion_occ.
  | No ionic wave fns used. Skipping ion_occ.
  | Found hydrogenic basis function :  2 p   1.800
  | Found hydrogenic basis function :  3 d   6.800
  | Found hydrogenic basis function :  3 s   5.800
  Species N                   : Missing cutoff potential type.
  Defaulting to exp(1/x)/(1-x)^2 type cutoff potential.
  Species N : No 'logarithmic' tag. Using default grid for free atom:
  | Default logarithmic grid data [bohr] : 0.1000E-03 0.1000E+03 0.1012E+01
  Species N : On-site basis accuracy parameter (for Gram-Schmidt orthonormalisation) not specified.
  Using default value basis_acc =  0.1000000E-03.
  Species N                   : Using default innermost maximum threshold i_radial=  2 for radial functions.
  Species N                   : Default cutoff onset for free atom density etc. : 0.35000000E+01 AA.
  Species N                   : Basic radial grid will be enhanced according to radial_multiplier =   1, to contain    35 grid points.
 
  Reading configuration options for species O                   .
  | Found nuclear charge :   8.0000
  | Found atomic mass :    15.9994000000000      amu
  | Found l_max for Hartree potential  :   4
  | Found cutoff potl. onset [A], width [A], scale factor :    3.50000    1.50000    1.00000
  | Threshold for basis-dependent cutoff potential is   0.100000E-03
  | Found data for basic radial integration grid :    36 points, outermost radius =    5.000 A
  | Found multiplier for basic radial grid :   1
  | Found angular grid specification: user-specified.
  | Specified grid contains     5 separate shells.
  | Check grid settings after all constraints further below.
  | Found free-atom valence shell :  2 s   2.000
  | Found free-atom valence shell :  2 p   4.000
  | No ionic wave fns used. Skipping ion_occ.
  | No ionic wave fns used. Skipping ion_occ.
  | Found hydrogenic basis function :  2 p   1.800
  | Found hydrogenic basis function :  3 d   7.600
  | Found hydrogenic basis function :  3 s   6.400
  Species O                   : Missing cutoff potential type.
  Defaulting to exp(1/x)/(1-x)^2 type cutoff potential.
  Species O : No 'logarithmic' tag. Using default grid for free atom:
  | Default logarithmic grid data [bohr] : 0.1000E-03 0.1000E+03 0.1012E+01
  Species O : On-site basis accuracy parameter (for Gram-Schmidt orthonormalisation) not specified.
  Using default value basis_acc =  0.1000000E-03.
  Species O                   : Using default innermost maximum threshold i_radial=  2 for radial functions.
  Species O                   : Default cutoff onset for free atom density etc. : 0.35000000E+01 AA.
  Species O                   : Basic radial grid will be enhanced according to radial_multiplier =   1, to contain    36 grid points.
 
  Finished reading input file 'control.in'. Consistency checks are next.
 
  MPI_IN_PLACE appears to work with this MPI implementation.
  | Keeping use_mpi_in_place .true. (see manual).
  Target number of points in a grid batch is not set. Defaulting to  100
  Method for grid partitioning is not set. Defaulting to parallel hash+maxmin partitioning.
  Batch size limit is not set. Defaulting to    200
  By default, will store active basis functions for each batch.
  If in need of memory, prune_basis_once .false. can be used to disable this option.
  communication_type for Hartree potential was not specified.
  Defaulting to calc_hartree .
  Pulay mixer: Number of initial linear mixing iterations not set.
  Defaulting to    0 iterations.
  Work space size for distributed Hartree potential not set.
  Defaulting to   0.200000E+03 MB.
  Algorithm-dependent basis array size parameters:
  | n_max_pulay                         :       10
  Presetting      1001 iterations before the initial mixing cycle
  is restarted anyway using the sc_init_iter criterion / keyword.
  Presetting a factor      1.000 between actual scf density residual
  and density convergence criterion sc_accuracy_rho below which sc_init_iter
  takes no effect.
  Geometry relaxation not requested: no relaxation will be performed.
  Handling of forces: Unphysical translation and rotation will be removed from forces.
  No accuracy limit for integral partition fn. given. Defaulting to  0.1000E-14.
  No threshold value for u(r) in integrations given. Defaulting to  0.1000E-05.
  No accuracy for occupation numbers given. Defaulting to  0.1000E-12.
  No threshold value for occupation numbers given. Defaulting to  0.0000E+00.
  No accuracy for fermi level given. Defaulting to  0.1000E-19.
  Maximum # of iterations to find E_F not set. Defaulting to  200.
  Preferred method for the eigenvalue solver ('KS_method') not specified in 'control.in'.
  Defaulting to serial version, 'lapack_fast'.
  Will not use alltoall communication since running on < 1024 CPUs.
  Threshold for basis singularities not set.
  Default threshold for basis singularities:  0.1000E-04
  partition_type (choice of integration weights) for integrals was not specified.
  | Using a version of the partition function of Stratmann and coworkers ('stratmann_smoother').
  | At each grid point, the set of atoms used to build the partition table is smoothly restricted to
  | only those atoms whose free-atom density would be non-zero at that grid point.
  Partitioning for Hartree potential was not defined. Using partition_type for integrals.
  | Adjusted default value of keyword multip_moments_threshold to:       0.10000000E-11
  | This value may affect high angular momentum components of the Hartree potential in periodic systems.
  No q(lm)/r^(l+1) cutoff set for long-range Hartree potential.
  | Using default value of  0.100000E-09 .
  | Verify using the multipole_threshold keyword.
  Defaulting to new monopole extrapolation.
  Density update method: automatic selection selected.
------------------------------------------------------------


------------------------------------------------------------
          Reading geometry description geometry.in.
------------------------------------------------------------
  Input structure read successfully.
  The structure contains       13 atoms,  and a total of         48.000 electrons.

  Input geometry:
  | No unit cell requested.
  | Atomic structure:
  |       Atom                x [A]            y [A]            z [A]
  |    1: Species C             0.00000000        0.00000000        0.00000000
  |    2: Species H             1.09300000        0.00000000        0.00000000
  |    3: Species N            -0.47961000        0.00000000       -1.41207000
  |    4: Species H            -1.18350000       -0.73148000       -1.51843000
  |    5: Species H            -0.88431000        0.91059000       -1.61981000
  |    6: Species C            -0.49584000        1.26211000        0.72868000
  |    7: Species H            -1.58789000        1.28919000        0.74431000
  |    8: Species H            -0.13407000        1.27425000        1.75947000
  |    9: Species H            -0.13407000        2.16087000        0.22380000
  |   10: Species C            -0.39425000       -1.28861000        0.74398000
  |   11: Species O            -0.10189000       -1.56493000        1.88303000
  |   12: Species O            -1.10210000       -2.13717000        0.06896000
  |   13: Species H            -0.52138000       -2.22154000       -0.70604000
  |

  | The smallest distance between any two atoms is         0.97210031 AA.
  |
  | The first atom of this pair is atom number                     12 .
  | The second atom of this pair is atom number                    13 .

  Number of empty states per atom not set in control.in - providing a guess from actual geometry.
  | Total number of empty states used during s.c.f. cycle:       29
  If you use a very high smearing, use empty_states (per atom!) in control.in to increase this value.

  Structure-dependent array size parameters: 
  | Maximum number of distinct radial functions  :       21
  | Maximum number of basis functions            :      119
  | Number of Kohn-Sham states (occupied + empty):       53
------------------------------------------------------------

------------------------------------------------------------
          Preparing all fixed parts of the calculation.
------------------------------------------------------------
  Determining machine precision:
    2.225073858507201E-308
  Setting up grids for atomic and cluster calculations.

  Creating wave function, potential, and density for free atoms.

  Species: H

  List of occupied orbitals and eigenvalues:
    n    l              occ      energy [Ha]    energy [eV]
    1    0           1.0000        -0.237589        -6.4651


  Species: C

  List of occupied orbitals and eigenvalues:
    n    l              occ      energy [Ha]    energy [eV]
    1    0           2.0000       -10.038835      -273.1706
    2    0           2.0000        -0.502696       -13.6791
    2    1           2.0000        -0.191971        -5.2238


  Species: N

  List of occupied orbitals and eigenvalues:
    n    l              occ      energy [Ha]    energy [eV]
    1    0           2.0000       -14.128000      -384.4424
    2    0           2.0000        -0.681077       -18.5330
    2    1           3.0000        -0.259788        -7.0692


  Species: O

  List of occupied orbitals and eigenvalues:
    n    l              occ      energy [Ha]    energy [eV]
    1    0           2.0000       -18.898188      -514.2459
    2    0           2.0000        -0.878505       -23.9053
    2    1           4.0000        -0.331779        -9.0282

  Creating fixed part of basis set: Ionic, confined, hydrogenic.
 
  H                    hydrogenic:
 
  List of hydrogenic basis orbitals: 
    n    l      effective z      eigenvalue [eV]  inner max. [A]     outer max. [A]     outer radius [A]   
    2    0         2.100000       -14.9728           0.193243           1.317208           4.583499
    2    1         3.500000       -41.6669           0.602369           0.602369           3.723403
 
 
  C                    hydrogenic:
 
  List of hydrogenic basis orbitals: 
    n    l      effective z      eigenvalue [eV]  inner max. [A]     outer max. [A]     outer radius [A]   
    2    1         1.700000        -9.7616           1.230570           1.230570           4.607917
    3    2         6.000000       -54.4224           0.792453           0.792453           3.883070
    2    0         4.900000       -81.6679           0.082559           0.562749           3.078220
 
 
  N                    hydrogenic:
 
  List of hydrogenic basis orbitals: 
    n    l      effective z      eigenvalue [eV]  inner max. [A]     outer max. [A]     outer radius [A]   
    2    1         1.800000       -10.9749           1.177451           1.177451           4.573712
    3    2         6.800000       -69.9026           0.704619           0.704619           3.538137
    3    0         5.800000       -50.8545           0.067388           1.191934           4.250239
 
 
  O                    hydrogenic:
 
  List of hydrogenic basis orbitals: 
    n    l      effective z      eigenvalue [eV]  inner max. [A]     outer max. [A]     outer radius [A]   
    2    1         1.800000       -10.9749           1.164242           1.164242           4.578029
    3    2         7.600000       -87.3180           0.624125           0.624125           3.251020
    3    0         6.400000       -61.9207           0.061167           1.081902           4.001998
 

  Adding cutoff potential to free-atom effective potential.
  Creating atomic-like basis functions for current effective potential.

  Species H                   :

  List of atomic basis orbitals and eigenvalues:
    n    l      energy [Ha]    energy [eV]    outer radius [A]
    1    0        -0.237589        -6.4651       4.527807


  Species C                   :

  List of atomic basis orbitals and eigenvalues:
    n    l      energy [Ha]    energy [eV]    outer radius [A]
    1    0       -10.038835      -273.1706       1.934409
    2    0        -0.502696       -13.6791       4.496620
    2    1        -0.191971        -5.2238       4.551928


  Species N                   :

  List of atomic basis orbitals and eigenvalues:
    n    l      energy [Ha]    energy [eV]    outer radius [A]
    1    0       -14.128000      -384.4424       1.637919
    2    0        -0.681077       -18.5330       4.463241
    2    1        -0.259788        -7.0692       4.518138


  Species O                   :

  List of atomic basis orbitals and eigenvalues:
    n    l      energy [Ha]    energy [eV]    outer radius [A]
    1    0       -18.898188      -514.2459       1.415765
    2    0        -0.878505       -23.9053       4.413171
    2    1        -0.331779        -9.0282       4.522403

  Assembling full basis from fixed parts.
  | Species H :   atomic orbital   1 s accepted.
  | Species H :    hydro orbital   2 s accepted.
  | Species H :    hydro orbital   2 p accepted.
  | Species C :   atomic orbital   1 s accepted.
  | Species C :    hydro orbital   2 s accepted.
  | Species C :   atomic orbital   2 s accepted.
  | Species C :   atomic orbital   2 p accepted.
  | Species C :    hydro orbital   2 p accepted.
  | Species C :    hydro orbital   3 d accepted.
  | Species N :   atomic orbital   1 s accepted.
  | Species N :    hydro orbital   3 s accepted.
  | Species N :   atomic orbital   2 s accepted.
  | Species N :   atomic orbital   2 p accepted.
  | Species N :    hydro orbital   2 p accepted.
  | Species N :    hydro orbital   3 d accepted.
  | Species O :   atomic orbital   1 s accepted.
  | Species O :    hydro orbital   3 s accepted.
  | Species O :   atomic orbital   2 s accepted.
  | Species O :   atomic orbital   2 p accepted.
  | Species O :    hydro orbital   2 p accepted.
  | Species O :    hydro orbital   3 d accepted.
 
  Basis size parameters after reduction:
  | Total number of radial functions:       21
  | Total number of basis functions :      119
 
  Per-task memory consumption for arrays in subroutine allocate_ext:
  |           5.250512MB.
  Testing on-site integration grid accuracy.
  |  Species  Function  <phi|h_atom|phi> (log., in eV)  <phi|h_atom|phi> (rad., in eV)
           1        1                 -6.4663192853                 -6.4651273558
           1        2                 13.7111246313                 13.7170609718
           1        3                 25.2673269279                 25.2674696378
           2        4               -273.1705927641               -273.1705631568
           2        5                -10.7109323383                -10.7107120029
           2        6                 17.4381822266                 17.4352413244
           2        7                 -5.2255326521                 -5.2270484734
           2        8                  8.6835629259                  8.6603288385
           2        9                 27.4952418996                 27.4953360207
           3       10               -384.4424306495               -384.4423701208
           3       11                 12.5842251816                 12.5842222903
           3       12                -15.7264628251                -15.7264433455
           3       13                 -7.0696854293                 -7.0701769954
           3       14                  8.8090390882                  8.7901077751
           3       15                 35.9586762123                 35.9588528632
           4       16               -514.2458688638               -514.2457643834
           4       17                 15.1795651126                 15.1795290741
           4       18                -21.5359799773                -21.5360846186
           4       19                 -9.0283069236                 -9.0284644067
           4       20                  8.3027758564                  8.2834874195
           4       21                 45.8339351984                 45.8338762259

  Preparing densities etc. for the partition functions (integrals / Hartree potential).

  Preparations completed.
  max(cpu_time)          :      0.146 s.
  Wall clock time (cpu1) :      0.148 s.
------------------------------------------------------------

------------------------------------------------------------
          Begin self-consistency loop: Initialization.

          Date     :  20200710, Time     :  152116.461
------------------------------------------------------------

  Initializing index lists of integration centers etc. from given atomic structure:
  | Number of centers in hartree potential         :        13
  | Number of centers in hartree multipole         :        13
  | Number of centers in electron density summation:        13
  | Number of centers in basis integrals           :        13
  | Number of centers in integrals                 :        13
  | Number of centers in hamiltonian               :        13
  Partitioning the integration grid into batches with parallel hashing+maxmin method.
  | Number of batches:      962
  | Maximal batch size:     139
  | Minimal batch size:      66
  | Average batch size:      72.397
  | Standard deviation of batch sizes:      16.713

  Integration load balanced across     1 MPI tasks.
  Work distribution over tasks is as follows:
  Task     0 has      69646 integration points.
  Initializing partition tables, free-atom densities, potentials, etc. across the integration grid (initialize_grid_storage).
  | initialize_grid_storage: Actual outermost partition radius vs. multipole_radius_free
  | (-- VB: in principle, multipole_radius_free should be larger, hence this output)
  | Species        1: Confinement radius =              4.999999999999999 AA, multipole_radius_free =              5.054417573612229 AA.
  | Species        1: outer_partition_radius set to              5.054417573612229 AA .
  | Species        2: Confinement radius =              4.999999999999999 AA, multipole_radius_free =              5.019602836301480 AA.
  | Species        2: outer_partition_radius set to              5.019602836301480 AA .
  | Species        3: Confinement radius =              4.999999999999999 AA, multipole_radius_free =              5.043624274424571 AA.
  | Species        3: outer_partition_radius set to              5.043624274424571 AA .
  | Species        4: Confinement radius =              4.999999999999999 AA, multipole_radius_free =              5.048384829883283 AA.
  | Species        4: outer_partition_radius set to              5.048384829883283 AA .
  | Original list of interatomic distances with          13 x         13 entries is created.
  | Net number of integration points:    69646
  | of which are non-zero points    :    59368
  Renormalizing the initial density to the exact electron count on the 3D integration grid.
  | Initial density: Formal number of electrons (from input files) :      48.0000000000
  | Integrated number of electrons on 3D grid     :      47.9998991795
  | Charge integration error                      :      -0.0001008205
  | Normalization factor for density and gradient :       1.0000021004
  Obtaining max. number of non-zero basis functions in each batch (get_n_compute_maxes).
  | Maximal number of non-zero basis functions:      119 in task     0
  Selecting the method for density update.
  Loop over occupied states selected for charge density update.
  Allocating        0.050 MB for KS_eigenvector
  Integrating Hamiltonian matrix: batch-based integration.
  Time summed over all CPUs for integration: real work        0.496 s, elapsed        0.496 s
  Integrating overlap matrix.
  Time summed over all CPUs for integration: real work        0.212 s, elapsed        0.212 s

  Updating Kohn-Sham eigenvalues and eigenvectors using ELSI and the ELPA eigensolver.
  Overlap matrix is nonsingular
  | Lowest eigenvalue of overlap  :  0.51E-02
  | Highest eigenvalue of overlap :  0.63E+01
  Finished singularity check of overlap matrix
  | Time :     0.002 s
  Finished Cholesky decomposition
  | Time :     0.000 s
  Finished transformation to standard eigenproblem
  | Time :     0.000 s
  Starting LAPACK eigensolver
  Finished solving standard eigenproblem
  | Time :     0.002 s
  Finished back-transformation of eigenvectors
  | Time :     0.000 s

  Obtaining occupation numbers and chemical potential using ELSI.
  | Chemical potential (Fermi level):    -9.72926217eV
  Writing Kohn-Sham eigenvalues.

  State    Occupation    Eigenvalue [Ha]    Eigenvalue [eV]
      1       2.00000         -19.008365         -517.24393
      2       2.00000         -18.977164         -516.39490
      3       2.00000         -14.246208         -387.65904
      4       2.00000         -10.166901         -276.65544
      5       2.00000         -10.141570         -275.96615
      6       2.00000         -10.132131         -275.70932
      7       2.00000          -1.183215          -32.19692
      8       2.00000          -1.100629          -29.94964
      9       2.00000          -0.992436          -27.00555
     10       2.00000          -0.859140          -23.37839
     11       2.00000          -0.756242          -20.57840
     12       2.00000          -0.682847          -18.58122
     13       2.00000          -0.642890          -17.49393
     14       2.00000          -0.594489          -16.17686
     15       2.00000          -0.581020          -15.81035
     16       2.00000          -0.571329          -15.54664
     17       2.00000          -0.556748          -15.14989
     18       2.00000          -0.527066          -14.34221
     19       2.00000          -0.521258          -14.18416
     20       2.00000          -0.503172          -13.69200
     21       2.00000          -0.464205          -12.63167
     22       2.00000          -0.428501          -11.66010
     23       2.00000          -0.407025          -11.07570
     24       2.00000          -0.384906          -10.47384
     25       0.00000          -0.157671           -4.29046
     26       0.00000          -0.067933           -1.84856
     27       0.00000          -0.027324           -0.74351
     28       0.00000          -0.017258           -0.46961
     29       0.00000          -0.001958           -0.05328
     30       0.00000           0.003145            0.08557
     31       0.00000           0.020990            0.57117
     32       0.00000           0.030472            0.82919
     33       0.00000           0.048426            1.31774
     34       0.00000           0.059926            1.63066
     35       0.00000           0.091801            2.49804
     36       0.00000           0.129574            3.52590
     37       0.00000           0.160847            4.37687
     38       0.00000           0.199779            5.43625
     39       0.00000           0.221651            6.03142
     40       0.00000           0.238573            6.49189
     41       0.00000           0.257426            7.00493
     42       0.00000           0.265220            7.21700
     43       0.00000           0.288675            7.85524
     44       0.00000           0.309376            8.41856
     45       0.00000           0.337317            9.17887
     46       0.00000           0.352498            9.59195
     47       0.00000           0.374450           10.18931
     48       0.00000           0.383669           10.44016
     49       0.00000           0.440166           11.97753
     50       0.00000           0.485235           13.20391
     51       0.00000           0.505158           13.74606
     52       0.00000           0.541510           14.73522
     53       0.00000           0.559710           15.23048

  Highest occupied state (VBM) at    -10.47383741 eV
  | Occupation number:      2.00000000

  Lowest unoccupied state (CBM) at    -4.29045952 eV
  | Occupation number:      0.00000000

  Overall HOMO-LUMO gap:      6.18337789 eV.
  Calculating total energy contributions from superposition of free atom densities.

  Total energy components:
  | Sum of eigenvalues            :        -188.85891376 Ha       -5139.11251858 eV
  | XC energy correction          :         -41.80212881 Ha       -1137.49379983 eV
  | XC potential correction       :          53.73867664 Ha        1462.30379269 eV
  | Free-atom electrostatic energy:        -146.83021404 Ha       -3995.45341041 eV
  | Hartree energy correction     :           0.00000000 Ha           0.00000000 eV
  | vdW energy correction         :           0.00000000 Ha           0.00000000 eV
  | Entropy correction            :           0.00000000 Ha           0.00000000 eV
  | ---------------------------
  | Total energy                  :        -323.75257996 Ha       -8809.75593614 eV
  | Total energy, T -> 0          :        -323.75257996 Ha       -8809.75593614 eV  <-- do not rely on this value for anything but (periodic) metals
  | Electronic free energy        :        -323.75257996 Ha       -8809.75593614 eV

  Derived energy quantities:
  | Kinetic energy                :         320.53023654 Ha        8722.07151047 eV
  | Electrostatic energy          :        -602.48068770 Ha      -16394.33364677 eV
  | Energy correction for multipole
  | error in Hartree potential    :           0.00000000 Ha           0.00000000 eV
  | Sum of eigenvalues per atom                           :        -395.31634758 eV
  | Total energy (T->0) per atom                          :        -677.67353355 eV  <-- do not rely on this value for anything but (periodic) metals
  | Electronic free energy per atom                       :        -677.67353355 eV
  Initialize hartree_potential_storage
  Max. number of atoms included in rho_multipole:           13

  End scf initialization - timings             :  max(cpu_time)    wall_clock(cpu1)
  | Time for scf. initialization               :        1.149 s           1.153 s
  | Boundary condition initialization          :        0.000 s           0.001 s
  | Integration                                :        0.707 s           0.708 s
  | Solution of K.-S. eqns.                    :        0.004 s           0.004 s
  | Grid partitioning                          :        0.111 s           0.111 s
  | Preloading free-atom quantities on grid    :        0.002 s           0.002 s
  | Free-atom superposition energy             :        0.084 s           0.084 s
  | Total energy evaluation                    :        0.000 s           0.001 s

  Partial memory accounting:
  | Current value for overall tracked memory usage on task 0  :           0.165 MB
  | Peak value for overall tracked memory usage on task 0     :           0.678 MB after allocating wave
  | Largest tracked array allocation on task 0 so far         :           0.132 MB  when allocating H_times_psi
  Note:  These values currently only include a subset of arrays which are explicitly tracked.
  The "true" memory usage will be greater.
------------------------------------------------------------

------------------------------------------------------------
          Begin self-consistency iteration #    1

  Date     :  20200710, Time     :  152117.614
------------------------------------------------------------
  Evaluating new KS density.
  Integration grid: deviation in total charge (<rho> - N_e) =  -2.842171E-14
  Pulay mixing of updated and previous charge densities.

  Evaluating partitioned Hartree potential by multipole expansion.
  | Analytical far-field extrapolation by fixed multipoles:
  | Hartree multipole sum: apparent total charge =  -0.200500E-03
  Summing up the Hartree potential.
  Time summed over all CPUs for potential: real work        0.282 s, elapsed        0.282 s
  | RMS charge density error from multipole expansion :   0.590688E-02

  Integrating Hamiltonian matrix: batch-based integration.
  Time summed over all CPUs for integration: real work        0.496 s, elapsed        0.496 s

  Updating Kohn-Sham eigenvalues and eigenvectors using ELSI and the ELPA eigensolver.
  Finished Cholesky decomposition
  | Time :     0.000 s
  Finished transformation to standard eigenproblem
  | Time :     0.000 s
  Starting LAPACK eigensolver
  Finished solving standard eigenproblem
  | Time :     0.001 s
  Finished back-transformation of eigenvectors
  | Time :     0.000 s

  Obtaining occupation numbers and chemical potential using ELSI.
  | Chemical potential (Fermi level):    -8.50999548eV
  Writing Kohn-Sham eigenvalues.

  State    Occupation    Eigenvalue [Ha]    Eigenvalue [eV]
      1       2.00000         -18.906638         -514.47580
      2       2.00000         -18.836224         -512.55974
      3       2.00000         -14.101241         -383.71430
      4       2.00000         -10.118399         -275.33564
      5       2.00000         -10.065657         -273.90045
      6       2.00000         -10.033935         -273.03727
      7       2.00000          -1.136433          -30.92391
      8       2.00000          -1.037984          -28.24498
      9       2.00000          -0.926273          -25.20517
     10       2.00000          -0.795301          -21.64123
     11       2.00000          -0.705771          -19.20501
     12       2.00000          -0.642128          -17.47318
     13       2.00000          -0.589825          -16.04995
     14       2.00000          -0.532611          -14.49310
     15       2.00000          -0.530770          -14.44299
     16       2.00000          -0.518857          -14.11883
     17       2.00000          -0.490647          -13.35118
     18       2.00000          -0.466358          -12.69026
     19       2.00000          -0.463131          -12.60243
     20       2.00000          -0.446161          -12.14065
     21       2.00000          -0.407680          -11.09354
     22       2.00000          -0.372261          -10.12973
     23       2.00000          -0.334876           -9.11244
     24       2.00000          -0.315002           -8.57165
     25       0.00000          -0.122083           -3.32206
     26       0.00000          -0.047263           -1.28609
     27       0.00000           0.005137            0.13978
     28       0.00000           0.017053            0.46404
     29       0.00000           0.027542            0.74945
     30       0.00000           0.036522            0.99382
     31       0.00000           0.057264            1.55824
     32       0.00000           0.064609            1.75809
     33       0.00000           0.082580            2.24713
     34       0.00000           0.099836            2.71666
     35       0.00000           0.131821            3.58703
     36       0.00000           0.158225            4.30551
     37       0.00000           0.185133            5.03774
     38       0.00000           0.227307            6.18534
     39       0.00000           0.251090            6.83250
     40       0.00000           0.272604            7.41792
     41       0.00000           0.293494            7.98639
     42       0.00000           0.298970            8.13538
     43       0.00000           0.322366            8.77204
     44       0.00000           0.347597            9.45860
     45       0.00000           0.370457           10.08064
     46       0.00000           0.386879           10.52751
     47       0.00000           0.416030           11.32074
     48       0.00000           0.418733           11.39430
     49       0.00000           0.472881           12.86774
     50       0.00000           0.518830           14.11809
     51       0.00000           0.539229           14.67316
     52       0.00000           0.573192           15.59735
     53       0.00000           0.601718           16.37357

  Highest occupied state (VBM) at     -8.57165041 eV
  | Occupation number:      2.00000000

  Lowest unoccupied state (CBM) at    -3.32206087 eV
  | Occupation number:      0.00000000

  Overall HOMO-LUMO gap:      5.24958955 eV.

  Total energy components:
  | Sum of eigenvalues            :        -185.54832675 Ha       -5049.02686249 eV
  | XC energy correction          :         -42.12711578 Ha       -1146.33714527 eV
  | XC potential correction       :          54.16124657 Ha        1473.80250528 eV
  | Free-atom electrostatic energy:        -146.83021404 Ha       -3995.45341041 eV
  | Hartree energy correction     :          -3.22798078 Ha         -87.83782619 eV
  | vdW energy correction         :           0.00000000 Ha           0.00000000 eV
  | Entropy correction            :          -0.00000000 Ha          -0.00000000 eV
  | ---------------------------
  | Total energy                  :        -323.57239078 Ha       -8804.85273908 eV
  | Total energy, T -> 0          :        -323.57239078 Ha       -8804.85273908 eV  <-- do not rely on this value for anything but (periodic) metals
  | Electronic free energy        :        -323.57239078 Ha       -8804.85273908 eV

  Derived energy quantities:
  | Kinetic energy                :         322.30715608 Ha        8770.42395109 eV
  | Electrostatic energy          :        -603.75243108 Ha      -16428.93954490 eV
  | Energy correction for multipole
  | error in Hartree potential    :           0.01173813 Ha           0.31941072 eV
  | Sum of eigenvalues per atom                           :        -388.38668173 eV
  | Total energy (T->0) per atom                          :        -677.29636454 eV  <-- do not rely on this value for anything but (periodic) metals
  | Electronic free energy per atom                       :        -677.29636454 eV

  Self-consistency convergence accuracy:
  | Change of charge density      :  0.5843E+00
  | Change of sum of eigenvalues  :  0.9009E+02 eV
  | Change of total energy        :  0.4903E+01 eV

  End self-consistency iteration #     1       :  max(cpu_time)    wall_clock(cpu1)
  | Time for this iteration                    :        1.188 s           1.191 s
  | Charge density update                      :        0.394 s           0.394 s
  | Density mixing                             :        0.005 s           0.006 s
  | Hartree multipole update                   :        0.009 s           0.009 s
  | Hartree multipole summation                :        0.283 s           0.283 s
  | Integration                                :        0.495 s           0.496 s
  | Solution of K.-S. eqns.                    :        0.002 s           0.002 s
  | Total energy evaluation                    :        0.000 s           0.001 s

  Partial memory accounting:
  | Current value for overall tracked memory usage on task 0  :           0.165 MB
  | Peak value for overall tracked memory usage on task 0     :           0.695 MB after allocating gradient_basis_wave
  | Largest tracked array allocation on task 0 so far         :           0.397 MB  when allocating gradient_basis_wave
  Note:  These values currently only include a subset of arrays which are explicitly tracked.
  The "true" memory usage will be greater.
------------------------------------------------------------

------------------------------------------------------------
          Begin self-consistency iteration #    2

  Date     :  20200710, Time     :  152118.805
------------------------------------------------------------
  Evaluating new KS density.
  Integration grid: deviation in total charge (<rho> - N_e) =  -2.131628E-14
  Pulay mixing of updated and previous charge densities.

  Evaluating partitioned Hartree potential by multipole expansion.
  | Analytical far-field extrapolation by fixed multipoles:
  | Hartree multipole sum: apparent total charge =  -0.325210E-03
  Summing up the Hartree potential.
  Time summed over all CPUs for potential: real work        0.283 s, elapsed        0.283 s
  | RMS charge density error from multipole expansion :   0.139927E-01

  Integrating Hamiltonian matrix: batch-based integration.
  Time summed over all CPUs for integration: real work        0.495 s, elapsed        0.495 s

  Updating Kohn-Sham eigenvalues and eigenvectors using ELSI and the ELPA eigensolver.
  Finished Cholesky decomposition
  | Time :     0.000 s
  Finished transformation to standard eigenproblem
  | Time :     0.000 s
  Starting LAPACK eigensolver
  Finished solving standard eigenproblem
  | Time :     0.002 s
  Finished back-transformation of eigenvectors
  | Time :     0.000 s

  Obtaining occupation numbers and chemical potential using ELSI.
  | Chemical potential (Fermi level):    -3.15320844eV
  Highest occupied state (VBM) at     -6.67265099 eV
  | Occupation number:      2.00000000

  Lowest unoccupied state (CBM) at    -2.09189642 eV
  | Occupation number:      0.00000000

  Overall HOMO-LUMO gap:      4.58075458 eV.

  Checking to see if s.c.f. parameters should be adjusted.

  Total energy components:
  | Sum of eigenvalues            :        -182.08573790 Ha       -4954.80502590 eV
  | XC energy correction          :         -42.48020172 Ha       -1155.94510265 eV
  | XC potential correction       :          54.61873337 Ha        1486.25135460 eV
  | Free-atom electrostatic energy:        -146.83021404 Ha       -3995.45341041 eV
  | Hartree energy correction     :          -6.71759921 Ha        -182.79517504 eV
  | vdW energy correction         :           0.00000000 Ha           0.00000000 eV
  | Entropy correction            :           0.00000000 Ha           0.00000000 eV
  | ---------------------------
  | Total energy                  :        -323.49501950 Ha       -8802.74735940 eV
  | Total energy, T -> 0          :        -323.49501950 Ha       -8802.74735940 eV  <-- do not rely on this value for anything but (periodic) metals
  | Electronic free energy        :        -323.49501950 Ha       -8802.74735940 eV

  Derived energy quantities:
  | Kinetic energy                :         323.60593303 Ha        8805.76547017 eV
  | Electrostatic energy          :        -604.62075081 Ha      -16452.56772692 eV
  | Energy correction for multipole
  | error in Hartree potential    :           0.02565010 Ha           0.69797482 eV
  | Sum of eigenvalues per atom                           :        -381.13884815 eV
  | Total energy (T->0) per atom                          :        -677.13441226 eV  <-- do not rely on this value for anything but (periodic) metals
  | Electronic free energy per atom                       :        -677.13441226 eV

  Self-consistency convergence accuracy:
  | Change of charge density      :  0.3658E+00
  | Change of sum of eigenvalues  :  0.9422E+02 eV
  | Change of total energy        :  0.2105E+01 eV

  End self-consistency iteration #     2       :  max(cpu_time)    wall_clock(cpu1)
  | Time for this iteration                    :        1.181 s           1.184 s
  | Charge density update                      :        0.387 s           0.388 s
  | Density mixing                             :        0.007 s           0.007 s
  | Hartree multipole update                   :        0.009 s           0.008 s
  | Hartree multipole summation                :        0.282 s           0.283 s
  | Integration                                :        0.494 s           0.496 s
  | Solution of K.-S. eqns.                    :        0.002 s           0.002 s
  | Total energy evaluation                    :        0.000 s           0.000 s

  Partial memory accounting:
  | Current value for overall tracked memory usage on task 0  :           0.166 MB
  | Peak value for overall tracked memory usage on task 0     :           0.695 MB after allocating gradient_basis_wave
  | Largest tracked array allocation on task 0 so far         :           0.397 MB  when allocating gradient_basis_wave
  Note:  These values currently only include a subset of arrays which are explicitly tracked.
  The "true" memory usage will be greater.
------------------------------------------------------------

------------------------------------------------------------
          Begin self-consistency iteration #    3

  Date     :  20200710, Time     :  152119.991
------------------------------------------------------------
  Evaluating new KS density.
  Integration grid: deviation in total charge (<rho> - N_e) =   2.842171E-14
  Pulay mixing of updated and previous charge densities.

  Evaluating partitioned Hartree potential by multipole expansion.
  | Analytical far-field extrapolation by fixed multipoles:
  | Hartree multipole sum: apparent total charge =  -0.408570E-03
  Summing up the Hartree potential.
  Time summed over all CPUs for potential: real work        0.282 s, elapsed        0.282 s
  | RMS charge density error from multipole expansion :   0.219925E-01

  Integrating Hamiltonian matrix: batch-based integration.
  Time summed over all CPUs for integration: real work        0.502 s, elapsed        0.502 s

  Updating Kohn-Sham eigenvalues and eigenvectors using ELSI and the ELPA eigensolver.
  Finished Cholesky decomposition
  | Time :     0.000 s
  Finished transformation to standard eigenproblem
  | Time :     0.000 s
  Starting LAPACK eigensolver
  Finished solving standard eigenproblem
  | Time :     0.002 s
  Finished back-transformation of eigenvectors
  | Time :     0.000 s

  Obtaining occupation numbers and chemical potential using ELSI.
  | Chemical potential (Fermi level):    -2.64852441eV
  Highest occupied state (VBM) at     -6.00950535 eV
  | Occupation number:      2.00000000

  Lowest unoccupied state (CBM) at    -1.41341340 eV
  | Occupation number:      0.00000000

  Overall HOMO-LUMO gap:      4.59609195 eV.

  Total energy components:
  | Sum of eigenvalues            :        -180.78649914 Ha       -4919.45094041 eV
  | XC energy correction          :         -42.63266837 Ha       -1160.09393120 eV
  | XC potential correction       :          54.81304950 Ha        1491.53896557 eV
  | Free-atom electrostatic energy:        -146.83021404 Ha       -3995.45341041 eV
  | Hartree energy correction     :          -8.04608694 Ha        -218.94516533 eV
  | vdW energy correction         :           0.00000000 Ha           0.00000000 eV
  | Entropy correction            :           0.00000000 Ha           0.00000000 eV
  | ---------------------------
  | Total energy                  :        -323.48241898 Ha       -8802.40448178 eV
  | Total energy, T -> 0          :        -323.48241898 Ha       -8802.40448178 eV  <-- do not rely on this value for anything but (periodic) metals
  | Electronic free energy        :        -323.48241898 Ha       -8802.40448178 eV

  Derived energy quantities:
  | Kinetic energy                :         323.23627800 Ha        8795.70664498 eV
  | Electrostatic energy          :        -604.08602861 Ha      -16438.01719556 eV
  | Energy correction for multipole
  | error in Hartree potential    :           0.03598788 Ha           0.97928001 eV
  | Sum of eigenvalues per atom                           :        -378.41930311 eV
  | Total energy (T->0) per atom                          :        -677.10803706 eV  <-- do not rely on this value for anything but (periodic) metals
  | Electronic free energy per atom                       :        -677.10803706 eV

  Self-consistency convergence accuracy:
  | Change of charge density      :  0.2053E+00
  | Change of sum of eigenvalues  :  0.3535E+02 eV
  | Change of total energy        :  0.3429E+00 eV

  End self-consistency iteration #     3       :  max(cpu_time)    wall_clock(cpu1)
  | Time for this iteration                    :        1.183 s           1.193 s
  | Charge density update                      :        0.387 s           0.388 s
  | Density mixing                             :        0.008 s           0.008 s
  | Hartree multipole update                   :        0.009 s           0.009 s
  | Hartree multipole summation                :        0.282 s           0.283 s
  | Integration                                :        0.495 s           0.502 s
  | Solution of K.-S. eqns.                    :        0.002 s           0.002 s
  | Total energy evaluation                    :        0.000 s           0.000 s

  Partial memory accounting:
  | Current value for overall tracked memory usage on task 0  :           0.166 MB
  | Peak value for overall tracked memory usage on task 0     :           0.695 MB after allocating gradient_basis_wave
  | Largest tracked array allocation on task 0 so far         :           0.397 MB  when allocating gradient_basis_wave
  Note:  These values currently only include a subset of arrays which are explicitly tracked.
  The "true" memory usage will be greater.
------------------------------------------------------------

------------------------------------------------------------
          Begin self-consistency iteration #    4

  Date     :  20200710, Time     :  152121.185
------------------------------------------------------------
  Evaluating new KS density.
  Integration grid: deviation in total charge (<rho> - N_e) =   4.263256E-14
  Pulay mixing of updated and previous charge densities.

  Evaluating partitioned Hartree potential by multipole expansion.
  | Analytical far-field extrapolation by fixed multipoles:
  | Hartree multipole sum: apparent total charge =  -0.435571E-03
  Summing up the Hartree potential.
  Time summed over all CPUs for potential: real work        0.283 s, elapsed        0.283 s
  | RMS charge density error from multipole expansion :   0.255685E-01

  Integrating Hamiltonian matrix: batch-based integration.
  Time summed over all CPUs for integration: real work        0.494 s, elapsed        0.494 s

  Updating Kohn-Sham eigenvalues and eigenvectors using ELSI and the ELPA eigensolver.
  Finished Cholesky decomposition
  | Time :     0.000 s
  Finished transformation to standard eigenproblem
  | Time :     0.000 s
  Starting LAPACK eigensolver
  Finished solving standard eigenproblem
  | Time :     0.002 s
  Finished back-transformation of eigenvectors
  | Time :     0.000 s

  Obtaining occupation numbers and chemical potential using ELSI.
  | Chemical potential (Fermi level):    -2.54596567eV
  Highest occupied state (VBM) at     -5.85777075 eV
  | Occupation number:      2.00000000

  Lowest unoccupied state (CBM) at    -1.32332173 eV
  | Occupation number:      0.00000000

  Overall HOMO-LUMO gap:      4.53444902 eV.

  Total energy components:
  | Sum of eigenvalues            :        -180.67610049 Ha       -4916.44684027 eV
  | XC energy correction          :         -42.66978261 Ha       -1161.10386113 eV
  | XC potential correction       :          54.85950925 Ha        1492.80319970 eV
  | Free-atom electrostatic energy:        -146.83021404 Ha       -3995.45341041 eV
  | Hartree energy correction     :          -8.16479036 Ha        -222.17524975 eV
  | vdW energy correction         :           0.00000000 Ha           0.00000000 eV
  | Entropy correction            :           0.00000000 Ha           0.00000000 eV
  | ---------------------------
  | Total energy                  :        -323.48137824 Ha       -8802.37616186 eV
  | Total energy, T -> 0          :        -323.48137824 Ha       -8802.37616186 eV  <-- do not rely on this value for anything but (periodic) metals
  | Electronic free energy        :        -323.48137824 Ha       -8802.37616186 eV

  Derived energy quantities:
  | Kinetic energy                :         322.82749725 Ha        8784.58315477 eV
  | Electrostatic energy          :        -603.63909288 Ha      -16425.85545549 eV
  | Energy correction for multipole
  | error in Hartree potential    :           0.04004505 Ha           1.08968119 eV
  | Sum of eigenvalues per atom                           :        -378.18821848 eV
  | Total energy (T->0) per atom                          :        -677.10585860 eV  <-- do not rely on this value for anything but (periodic) metals
  | Electronic free energy per atom                       :        -677.10585860 eV

  Self-consistency convergence accuracy:
  | Change of charge density      :  0.6866E-01
  | Change of sum of eigenvalues  :  0.3004E+01 eV
  | Change of total energy        :  0.2832E-01 eV

  End self-consistency iteration #     4       :  max(cpu_time)    wall_clock(cpu1)
  | Time for this iteration                    :        1.183 s           1.186 s
  | Charge density update                      :        0.386 s           0.387 s
  | Density mixing                             :        0.009 s           0.010 s
  | Hartree multipole update                   :        0.009 s           0.009 s
  | Hartree multipole summation                :        0.283 s           0.283 s
  | Integration                                :        0.493 s           0.495 s
  | Solution of K.-S. eqns.                    :        0.002 s           0.002 s
  | Total energy evaluation                    :        0.000 s           0.000 s

  Partial memory accounting:
  | Current value for overall tracked memory usage on task 0  :           0.166 MB
  | Peak value for overall tracked memory usage on task 0     :           0.696 MB after allocating gradient_basis_wave
  | Largest tracked array allocation on task 0 so far         :           0.397 MB  when allocating gradient_basis_wave
  Note:  These values currently only include a subset of arrays which are explicitly tracked.
  The "true" memory usage will be greater.
------------------------------------------------------------

------------------------------------------------------------
          Begin self-consistency iteration #    5

  Date     :  20200710, Time     :  152122.372
------------------------------------------------------------
  Evaluating new KS density.
  Integration grid: deviation in total charge (<rho> - N_e) =   1.421085E-14
  Pulay mixing of updated and previous charge densities.

  Evaluating partitioned Hartree potential by multipole expansion.
  | Analytical far-field extrapolation by fixed multipoles:
  | Hartree multipole sum: apparent total charge =  -0.430216E-03
  Summing up the Hartree potential.
  Time summed over all CPUs for potential: real work        0.282 s, elapsed        0.282 s
  | RMS charge density error from multipole expansion :   0.253331E-01

  Integrating Hamiltonian matrix: batch-based integration.
  Time summed over all CPUs for integration: real work        0.494 s, elapsed        0.494 s

  Updating Kohn-Sham eigenvalues and eigenvectors using ELSI and the ELPA eigensolver.
  Finished Cholesky decomposition
  | Time :     0.000 s
  Finished transformation to standard eigenproblem
  | Time :     0.000 s
  Starting LAPACK eigensolver
  Finished solving standard eigenproblem
  | Time :     0.001 s
  Finished back-transformation of eigenvectors
  | Time :     0.000 s

  Obtaining occupation numbers and chemical potential using ELSI.
  | Chemical potential (Fermi level):    -2.59167872eV
  Highest occupied state (VBM) at     -5.93787730 eV
  | Occupation number:      2.00000000

  Lowest unoccupied state (CBM) at    -1.40728002 eV
  | Occupation number:      0.00000000

  Overall HOMO-LUMO gap:      4.53059728 eV.

  Total energy components:
  | Sum of eigenvalues            :        -180.84923996 Ha       -4921.15820501 eV
  | XC energy correction          :         -42.64777520 Ha       -1160.50500891 eV
  | XC potential correction       :          54.83097268 Ha        1492.02668002 eV
  | Free-atom electrostatic energy:        -146.83021404 Ha       -3995.45341041 eV
  | Hartree energy correction     :          -7.98483651 Ha        -217.27845648 eV
  | vdW energy correction         :           0.00000000 Ha           0.00000000 eV
  | Entropy correction            :           0.00000000 Ha           0.00000000 eV
  | ---------------------------
  | Total energy                  :        -323.48109303 Ha       -8802.36840078 eV
  | Total energy, T -> 0          :        -323.48109303 Ha       -8802.36840078 eV  <-- do not rely on this value for anything but (periodic) metals
  | Electronic free energy        :        -323.48109303 Ha       -8802.36840078 eV

  Derived energy quantities:
  | Kinetic energy                :         322.72677774 Ha        8781.84243765 eV
  | Electrostatic energy          :        -603.56009557 Ha      -16423.70582952 eV
  | Energy correction for multipole
  | error in Hartree potential    :           0.03943210 Ha           1.07300196 eV
  | Sum of eigenvalues per atom                           :        -378.55063115 eV
  | Total energy (T->0) per atom                          :        -677.10526160 eV  <-- do not rely on this value for anything but (periodic) metals
  | Electronic free energy per atom                       :        -677.10526160 eV

  Self-consistency convergence accuracy:
  | Change of charge density      :  0.2124E-01
  | Change of sum of eigenvalues  : -0.4711E+01 eV
  | Change of total energy        :  0.7761E-02 eV

  End self-consistency iteration #     5       :  max(cpu_time)    wall_clock(cpu1)
  | Time for this iteration                    :        1.183 s           1.187 s
  | Charge density update                      :        0.385 s           0.387 s
  | Density mixing                             :        0.011 s           0.011 s
  | Hartree multipole update                   :        0.009 s           0.009 s
  | Hartree multipole summation                :        0.282 s           0.282 s
  | Integration                                :        0.493 s           0.495 s
  | Solution of K.-S. eqns.                    :        0.002 s           0.002 s
  | Total energy evaluation                    :        0.000 s           0.001 s

  Partial memory accounting:
  | Current value for overall tracked memory usage on task 0  :           0.166 MB
  | Peak value for overall tracked memory usage on task 0     :           0.696 MB after allocating gradient_basis_wave
  | Largest tracked array allocation on task 0 so far         :           0.397 MB  when allocating gradient_basis_wave
  Note:  These values currently only include a subset of arrays which are explicitly tracked.
  The "true" memory usage will be greater.
------------------------------------------------------------

------------------------------------------------------------
          Begin self-consistency iteration #    6

  Date     :  20200710, Time     :  152123.561
------------------------------------------------------------
  Evaluating new KS density.
  Integration grid: deviation in total charge (<rho> - N_e) =  -4.973799E-14
  Pulay mixing of updated and previous charge densities.

  Evaluating partitioned Hartree potential by multipole expansion.
  | Analytical far-field extrapolation by fixed multipoles:
  | Hartree multipole sum: apparent total charge =  -0.432464E-03
  Summing up the Hartree potential.
  Time summed over all CPUs for potential: real work        0.282 s, elapsed        0.282 s
  | RMS charge density error from multipole expansion :   0.257443E-01

  Integrating Hamiltonian matrix: batch-based integration.
  Time summed over all CPUs for integration: real work        0.495 s, elapsed        0.495 s

  Updating Kohn-Sham eigenvalues and eigenvectors using ELSI and the ELPA eigensolver.
  Finished Cholesky decomposition
  | Time :     0.000 s
  Finished transformation to standard eigenproblem
  | Time :     0.000 s
  Starting LAPACK eigensolver
  Finished solving standard eigenproblem
  | Time :     0.001 s
  Finished back-transformation of eigenvectors
  | Time :     0.000 s

  Obtaining occupation numbers and chemical potential using ELSI.
  | Chemical potential (Fermi level):    -2.58694174eV
  Highest occupied state (VBM) at     -5.91588355 eV
  | Occupation number:      2.00000000

  Lowest unoccupied state (CBM) at    -1.43002455 eV
  | Occupation number:      0.00000000

  Overall HOMO-LUMO gap:      4.48585899 eV.

  Total energy components:
  | Sum of eigenvalues            :        -180.86692027 Ha       -4921.63931087 eV
  | XC energy correction          :         -42.64549084 Ha       -1160.44284848 eV
  | XC potential correction       :          54.82796993 Ha        1491.94497106 eV
  | Free-atom electrostatic energy:        -146.83021404 Ha       -3995.45341041 eV
  | Hartree energy correction     :          -7.96638501 Ha        -216.77636553 eV
  | vdW energy correction         :           0.00000000 Ha           0.00000000 eV
  | Entropy correction            :           0.00000000 Ha           0.00000000 eV
  | ---------------------------
  | Total energy                  :        -323.48104023 Ha       -8802.36696423 eV
  | Total energy, T -> 0          :        -323.48104023 Ha       -8802.36696423 eV  <-- do not rely on this value for anything but (periodic) metals
  | Electronic free energy        :        -323.48104023 Ha       -8802.36696423 eV

  Derived energy quantities:
  | Kinetic energy                :         322.64332186 Ha        8779.57148741 eV
  | Electrostatic energy          :        -603.47887125 Ha      -16421.49560317 eV
  | Energy correction for multipole
  | error in Hartree potential    :           0.03970478 Ha           1.08042205 eV
  | Sum of eigenvalues per atom                           :        -378.58763930 eV
  | Total energy (T->0) per atom                          :        -677.10515109 eV  <-- do not rely on this value for anything but (periodic) metals
  | Electronic free energy per atom                       :        -677.10515109 eV

  Self-consistency convergence accuracy:
  | Change of charge density      :  0.1083E-01
  | Change of sum of eigenvalues  : -0.4811E+00 eV
  | Change of total energy        :  0.1437E-02 eV

  End self-consistency iteration #     6       :  max(cpu_time)    wall_clock(cpu1)
  | Time for this iteration                    :        1.185 s           1.189 s
  | Charge density update                      :        0.387 s           0.388 s
  | Density mixing                             :        0.012 s           0.012 s
  | Hartree multipole update                   :        0.009 s           0.009 s
  | Hartree multipole summation                :        0.282 s           0.282 s
  | Integration                                :        0.494 s           0.495 s
  | Solution of K.-S. eqns.                    :        0.002 s           0.002 s
  | Total energy evaluation                    :        0.000 s           0.000 s

  Partial memory accounting:
  | Current value for overall tracked memory usage on task 0  :           0.166 MB
  | Peak value for overall tracked memory usage on task 0     :           0.696 MB after allocating gradient_basis_wave
  | Largest tracked array allocation on task 0 so far         :           0.397 MB  when allocating gradient_basis_wave
  Note:  These values currently only include a subset of arrays which are explicitly tracked.
  The "true" memory usage will be greater.
------------------------------------------------------------

------------------------------------------------------------
          Begin self-consistency iteration #    7

  Date     :  20200710, Time     :  152124.750
------------------------------------------------------------
  Evaluating new KS density.
  Integration grid: deviation in total charge (<rho> - N_e) =   4.263256E-14
  Pulay mixing of updated and previous charge densities.

  Evaluating partitioned Hartree potential by multipole expansion.
  | Analytical far-field extrapolation by fixed multipoles:
  | Hartree multipole sum: apparent total charge =  -0.433029E-03
  Summing up the Hartree potential.
  Time summed over all CPUs for potential: real work        0.282 s, elapsed        0.282 s
  | RMS charge density error from multipole expansion :   0.258659E-01

  Integrating Hamiltonian matrix: batch-based integration.
  Time summed over all CPUs for integration: real work        0.494 s, elapsed        0.494 s

  Updating Kohn-Sham eigenvalues and eigenvectors using ELSI and the ELPA eigensolver.
  Finished Cholesky decomposition
  | Time :     0.000 s
  Finished transformation to standard eigenproblem
  | Time :     0.000 s
  Starting LAPACK eigensolver
  Finished solving standard eigenproblem
  | Time :     0.001 s
  Finished back-transformation of eigenvectors
  | Time :     0.000 s

[...]
  |   Hirshfeld dipole moment :      0.05666573
  |   Hirshfeld second moments:      0.01654547      -0.02862867      -0.01564002
  |                                 -0.02862867      -0.02346008       0.00552843
  |                                 -0.01564002       0.00552843      -0.01710389
  ----------------------------------------------------------------------
  | Atom    12: O
  |   Hirshfeld charge        :     -0.14456075
  |   Free atom volume        :     23.61338643
  |   Hirshfeld volume        :     20.86584811
  |   Hirshfeld dipole vector :      0.02684446       0.03416369      -0.01175591
  |   Hirshfeld dipole moment :      0.04501093
  |   Hirshfeld second moments:      0.05764487      -0.01815886      -0.01454859
  |                                 -0.01815886       0.04395495       0.03175140
  |                                 -0.01454859       0.03175140       0.07909892
  ----------------------------------------------------------------------
  | Atom    13: H
  |   Hirshfeld charge        :      0.17619868
  |   Free atom volume        :      9.95071624
  |   Hirshfeld volume        :      6.38535783
  |   Hirshfeld dipole vector :      0.06467290      -0.03524495      -0.08808630
  |   Hirshfeld dipole moment :      0.11482155
  |   Hirshfeld second moments:      0.12058552      -0.00883236       0.01023800
  |                                 -0.00883236       0.10210272       0.01876076
  |                                  0.01023800       0.01876076       0.10536395
  ----------------------------------------------------------------------


  Total energy components:
  | Sum of eigenvalues            :        -180.86306791 Ha       -4921.53448262 eV
  | XC energy correction          :         -42.64279968 Ha       -1160.36961816 eV
  | XC potential correction       :          54.82456320 Ha        1491.85226922 eV
  | Free-atom electrostatic energy:        -146.83021404 Ha       -3995.45341041 eV
  | Hartree energy correction     :          -7.96950054 Ha        -216.86114356 eV
  | vdW energy correction         :          -0.00316711 Ha          -0.08618135 eV
  | Entropy correction            :           0.00000000 Ha           0.00000000 eV
  | ---------------------------
  | Total energy                  :        -323.48418607 Ha       -8802.45256688 eV
  | Total energy, T -> 0          :        -323.48418607 Ha       -8802.45256688 eV  <-- do not rely on this value for anything but (periodic) metals
  | Electronic free energy        :        -323.48418607 Ha       -8802.45256688 eV

  Derived energy quantities:
  | Kinetic energy                :         322.60662658 Ha        8778.57295816 eV
  | Electrostatic energy          :        -603.44484587 Ha      -16420.56972554 eV
  | Energy correction for multipole
  | error in Hartree potential    :           0.03973639 Ha           1.08128210 eV
  | Sum of eigenvalues per atom                           :        -378.57957559 eV
  | Total energy (T->0) per atom                          :        -677.11173591 eV  <-- do not rely on this value for anything but (periodic) metals
  | Electronic free energy per atom                       :        -677.11173591 eV

  atomic forces [eV/Ang]:
  -----------------------
  atom #    1
   Hellmann-Feynman              :  0.641611E+00  0.108249E+00  0.135267E+01
   Ionic forces                  :  0.000000E+00  0.000000E+00  0.000000E+00
   Multipole                     : -0.226393E-01  0.272053E+00 -0.307802E+00
   Pulay + GGA                   : -0.110847E+01  0.110891E-01 -0.145234E+01
   Van der Waals                 :  0.234918E-02  0.223202E-02 -0.955622E-03
   ----------------------------------------------------------------
   Total forces(   1)            : -0.487147E+00  0.393622E+00 -0.408430E+00
  atom #    2
   Hellmann-Feynman              :  0.374703E+00  0.591286E-01  0.851750E-01
   Ionic forces                  :  0.000000E+00  0.000000E+00  0.000000E+00
   Multipole                     :  0.161613E+00  0.907279E-02 -0.367462E-01
   Pulay + GGA                   : -0.151110E+00  0.151249E-01 -0.104771E-01
   Van der Waals                 :  0.629730E-02 -0.518666E-02 -0.649080E-02
   ----------------------------------------------------------------
   Total forces(   2)            :  0.391503E+00  0.781396E-01  0.314609E-01
  atom #    3
   Hellmann-Feynman              :  0.889098E+01 -0.309407E+01 -0.524699E+01
   Ionic forces                  :  0.000000E+00  0.000000E+00  0.000000E+00
   Multipole                     : -0.268137E+00  0.176610E+00 -0.116808E+01
   Pulay + GGA                   : -0.796972E+01  0.253016E+01  0.680835E+01
   Van der Waals                 :  0.353258E-02 -0.373427E-02 -0.868819E-02
   ----------------------------------------------------------------
   Total forces(   3)            :  0.656660E+00 -0.391041E+00  0.384585E+00
  atom #    4
   Hellmann-Feynman              : -0.414654E+00  0.356731E+00 -0.932927E-01
   Ionic forces                  :  0.000000E+00  0.000000E+00  0.000000E+00
   Multipole                     : -0.842845E-01 -0.415056E-01 -0.613658E-01
   Pulay + GGA                   :  0.129324E+00  0.186599E+00 -0.790698E-02
   Van der Waals                 : -0.572183E-03  0.240937E-02  0.107874E-02
   ----------------------------------------------------------------
   Total forces(   4)            : -0.370186E+00  0.504234E+00 -0.161487E+00
  atom #    5
   Hellmann-Feynman              : -0.265302E+00  0.690351E-01 -0.111891E+00
   Ionic forces                  :  0.000000E+00  0.000000E+00  0.000000E+00
   Multipole                     : -0.656275E-01  0.469273E-01 -0.804140E-01
   Pulay + GGA                   :  0.153065E+00 -0.198772E+00  0.903606E-02
   Van der Waals                 : -0.108869E-02 -0.898823E-02 -0.572361E-02
   ----------------------------------------------------------------
   Total forces(   5)            : -0.178954E+00 -0.917979E-01 -0.188993E+00
  atom #    6
   Hellmann-Feynman              : -0.767784E-01 -0.588446E+00  0.492041E+00
   Ionic forces                  :  0.000000E+00  0.000000E+00  0.000000E+00
   Multipole                     : -0.108215E+00  0.566685E+00  0.258639E+00
   Pulay + GGA                   :  0.365839E+00 -0.441992E+00 -0.464686E+00
   Van der Waals                 : -0.206215E-02  0.676961E-02  0.709281E-04
   ----------------------------------------------------------------
   Total forces(   6)            :  0.178783E+00 -0.456984E+00  0.286065E+00
  atom #    7
   Hellmann-Feynman              : -0.226373E+00 -0.642277E-01 -0.276202E-01
   Ionic forces                  :  0.000000E+00  0.000000E+00  0.000000E+00
   Multipole                     : -0.117737E+00  0.483387E-01  0.253280E-01
   Pulay + GGA                   :  0.109254E+00 -0.349311E-02  0.135680E-01
   Van der Waals                 : -0.343260E-02  0.184207E-02  0.800689E-02
   ----------------------------------------------------------------
   Total forces(   7)            : -0.238289E+00 -0.175400E-01  0.192826E-01
  atom #    8
   Hellmann-Feynman              :  0.938204E-01  0.366022E-01  0.181157E+00
   Ionic forces                  :  0.000000E+00  0.000000E+00  0.000000E+00
   Multipole                     :  0.129183E-01  0.601385E-01  0.120168E+00
   Pulay + GGA                   : -0.482216E-01 -0.462050E-01 -0.113304E+00
   Van der Waals                 : -0.295556E-02  0.113692E-01  0.515068E-03
   ----------------------------------------------------------------
   Total forces(   8)            :  0.555615E-01  0.619049E-01  0.188536E+00
  atom #    9
   Hellmann-Feynman              :  0.134523E+00  0.500616E-01 -0.203014E+00
   Ionic forces                  :  0.000000E+00  0.000000E+00  0.000000E+00
   Multipole                     :  0.173972E-01  0.130304E+00 -0.956195E-02
   Pulay + GGA                   : -0.249658E-01 -0.692985E-01  0.759225E-01
   Van der Waals                 : -0.106898E-02  0.610459E-02  0.775822E-02
   ----------------------------------------------------------------
   Total forces(   9)            :  0.125885E+00  0.117171E+00 -0.128895E+00
  atom #   10
   Hellmann-Feynman              :  0.336768E+01  0.485234E+01  0.222066E+01
   Ionic forces                  :  0.000000E+00  0.000000E+00  0.000000E+00
   Multipole                     : -0.174422E-02  0.139599E-01  0.265251E+00
   Pulay + GGA                   : -0.201528E+01 -0.281556E+01 -0.682889E-01
   Van der Waals                 :  0.287078E-02 -0.109824E-01 -0.115809E-02
   ----------------------------------------------------------------
   Total forces(  10)            :  0.135353E+01  0.203975E+01  0.241646E+01
  atom #   11
   Hellmann-Feynman              :  0.416053E+01 -0.255470E+01  0.138910E+02
   Ionic forces                  :  0.000000E+00  0.000000E+00  0.000000E+00
   Multipole                     :  0.136972E+00 -0.545990E+00  0.701097E+00
   Pulay + GGA                   : -0.388471E+01  0.392060E+01 -0.136303E+02
   Van der Waals                 : -0.312197E-02 -0.104726E-01  0.663800E-02
   ----------------------------------------------------------------
   Total forces(  11)            :  0.409670E+00  0.809437E+00  0.968426E+00
  atom #   12
   Hellmann-Feynman              : -0.124170E+02 -0.864202E+01  0.117036E+01
   Ionic forces                  :  0.000000E+00  0.000000E+00  0.000000E+00
   Multipole                     : -0.906854E+00 -0.145616E+01 -0.159026E-01
   Pulay + GGA                   :  0.119714E+02  0.767868E+01 -0.342846E+01
   Van der Waals                 :  0.342347E-03  0.738485E-02  0.366788E-02
   ----------------------------------------------------------------
   Total forces(  12)            : -0.135208E+01 -0.241211E+01 -0.227034E+01
  atom #   13
   Hellmann-Feynman              : -0.403570E+00 -0.585605E+00 -0.142020E+01
   Ionic forces                  :  0.000000E+00  0.000000E+00  0.000000E+00
   Multipole                     :  0.786800E-01 -0.246052E-01 -0.755802E-01
   Pulay + GGA                   : -0.218384E+00 -0.272511E-01  0.356655E+00
   Van der Waals                 : -0.109005E-02  0.125255E-02 -0.471942E-02
   ----------------------------------------------------------------
   Total forces(  13)            : -0.544364E+00 -0.636208E+00 -0.114384E+01

  Timings for VdW correction (Tkatchenko-Scheffler 2009 or later):
  | CPU time:        0.090 s, Wall clock time:        0.090 s.
  Removing unitary transformations (pure translations, rotations) from forces on atoms.
  Atomic forces before filtering:
  | Net force on center of mass :   0.570122E-03 -0.141974E-02 -0.716761E-02 eV/A
  | Net torque on center of mass:   0.787292E-02  0.143834E-02  0.778543E-02 eV
  Atomic forces after filtering:
  | Net force on center of mass :  -0.624421E-15  0.000000E+00  0.356812E-15 eV/A
  | Net torque on center of mass:   0.566451E-15  0.165215E-15 -0.151054E-14 eV

  Energy and forces in a compact form:
  | Total energy uncorrected      :         -0.880245256688429E+04 eV
  | Total energy corrected        :         -0.880245256688429E+04 eV  <-- do not rely on this value for anything but (periodic) metals
  | Electronic free energy        :         -0.880245256688429E+04 eV
  Total atomic forces (unitary forces cleaned) [eV/Ang]:
  |   1         -0.487161444226725E+00          0.393587368264914E+00         -0.407850250584981E+00
  |   2          0.391488895835586E+00          0.777942391468417E-01          0.321489590402655E-01
  |   3          0.656785887879325E+00         -0.391242081074343E+00          0.385116887880640E+00
  |   4         -0.370256932621969E+00          0.504209972901389E+00         -0.160868351222316E+00
  |   5         -0.178548201912604E+00         -0.919285178025973E-01         -0.188696191893040E+00
  |   6          0.179055224096917E+00         -0.456721842508784E+00          0.286325019742583E+00
  |   7         -0.238010687002850E+00         -0.169647782633119E-01          0.194282153107908E-01
  |   8          0.557343544088950E-01          0.622846408265554E-01          0.188829485108452E+00
  |   9          0.126462233105734E+00          0.117222431487785E+00         -0.128791579658326E+00
  |  10          0.135307413521614E+01          0.203999043486965E+01          0.241728080399011E+01
  |  11          0.409024117816523E+00          0.809834303061752E+00          0.969330446109237E+00
  |  12         -0.135270887447017E+01         -0.241181980503229E+01         -0.226941212222317E+01
  |  13         -0.544938708124804E+00         -0.636246365877562E+00         -0.114284132160024E+01

  ------------------------------------ 
  Start decomposition of the XC Energy 
  ------------------------------------ 
  X and C from original XC functional choice 
  Hartree-Fock Energy :          0.000000000 Ha              0.000000000 eV
  X Energy            :        -41.040702903 Ha          -1116.774346854 eV
  C Energy            :         -1.602096773 Ha            -43.595271307 eV
  Total XC Energy     :        -42.642799677 Ha          -1160.369618161 eV
  ------------------------------------ 
  LDA X and C from self-consistent density 
  X Energy LDA        :        -37.261606587 Ha          -1013.939903928 eV
  C Energy LDA        :         -3.139055251 Ha            -85.418039390 eV
  ------------------------------------ 
  End decomposition of the XC Energy 
  ------------------------------------ 

------------------------------------------------------------

------------------------------------------------------------------------------
  Final output of selected total energy values:

  The following output summarizes some interesting total energy values
  at the end of a run (AFTER all relaxation, molecular dynamics, etc.).

  | Total energy of the DFT / Hartree-Fock s.c.f. calculation      :          -8802.452566884 eV
  | Final zero-broadening corrected energy (caution - metals only) :          -8802.452566884 eV
  | For reference only, the value of 1 Hartree used in FHI-aims is :             27.211384500 eV

  Before relying on these values, please be sure to understand exactly which
  total energy value is referred to by a given number. Different objects may
  all carry the same name 'total energy'. Definitions:

  Total energy of the DFT / Hartree-Fock s.c.f. calculation:
  | Note that this energy does not include ANY quantities calculated after the
  | s.c.f. cycle, in particular not ANY RPA, MP2, etc. many-body perturbation terms.

  Final zero-broadening corrected energy:
  | For metallic systems only, a broadening of the occupation numbers at the Fermi
  | level can be extrapolated back to zero broadening by an electron-gas inspired
  | formula. For all systems that are not real metals, this value can be
  | meaningless and should be avoided.

------------------------------------------------------------------------------
  Methods described in the following list of references were used in this FHI-aims run.
  If you publish the results, please make sure to cite these reference if they apply.
  FHI-aims is an academic code, and for our developers (often, Ph.D. students
  and postdocs), scientific credit in the community is essential.
  Thank you for helping us!

  For any use of FHI-aims, please cite:

    Volker Blum, Ralf Gehrke, Felix Hanke, Paula Havu, Ville Havu,
    Xinguo Ren, Karsten Reuter, and Matthias Scheffler
    'Ab initio molecular simulations with numeric atom-centered orbitals'
    Computer Physics Communications 180, 2175-2196 (2009)
    http://dx.doi.org/10.1016/j.cpc.2009.06.022


  The scalable eigensolver library ELPA was used in your run.
  ELPA is essential especially for large systems on hundreds or thousands of CPUs.
  For ELPA, please cite:

    Andreas Marek, Volker Blum, Rainer Johanni, Ville Havu, Bruno Lang,
    Thomas Auckenthaler, Alexander Heinecke, Hans-Joachim Bungartz, and Hermann Lederer,
    'The ELPA Library - Scalable Parallel Eigenvalue Solutions
    for Electronic Structure Theory and Computational Science'
    The Journal of Physics: Condensed Matter 26, 213201 (2014).
    http://dx.doi.org/10.1088/0953-8984/26/21/213201


  The ELSI infrastructure was used in your run to solve the Kohn-Sham electronic structure.
  Please check out http://elsi-interchange.org to learn more.
  If scalability is important for your project, please acknowledge ELSI by citing:

    V. W-z. Yu, F. Corsetti, A. Garcia, W. P. Huhn, M. Jacquelin, W. Jia,
    B. Lange, L. Lin, J. Lu, W. Mi, A. Seifitokaldani, A. Vazquez-Mayagoitia,
    C. Yang, H. Yang, and V. Blum
    'ELSI: A unified software interface for Kohn-Sham electronic structure solvers'
    Computer Physics Communications 222, 267-285 (2018).
    http://dx.doi.org/10.1016/j.cpc.2017.09.007


  For the real-space grid partitioning and parallelization used in this calculation, please cite:

    Ville Havu, Volker Blum, Paula Havu, and Matthias Scheffler,
    'Efficient O(N) integration for all-electron electronic structure calculation'
    'using numerically tabulated basis functions'
    Journal of Computational Physics 228, 8367-8379 (2009).
    http://dx.doi.org/10.1016/j.jcp.2009.08.008

  Of course, there are many other important community references, e.g., those cited in the
  above references. Our list is limited to references that describe implementations in the
  FHI-aims code. The reason is purely practical (length of this list) - please credit others as well.

------------------------------------------------------------
          Leaving FHI-aims.
          Date     :  20200710, Time     :  152139.055

          Computational steps:
          | Number of self-consistency cycles          :           16
          | Number of SCF (re)initializations          :            1

          Detailed time accounting                     :  max(cpu_time)    wall_clock(cpu1)
          | Total time                                 :       22.663 s          22.759 s
          | Preparation time                           :        0.146 s           0.148 s
          | Boundary condition initalization           :        0.000 s           0.001 s
          | Grid partitioning                          :        0.111 s           0.111 s
          | Preloading free-atom quantities on grid    :        0.002 s           0.002 s
          | Free-atom superposition energy             :        0.084 s           0.084 s
          | Total time for integrations                :        8.608 s           8.635 s
          | Total time for solution of K.-S. equations :        0.036 s           0.037 s
          | Total time for density & force components  :        7.130 s           7.159 s
          | Total time for mixing                      :        0.215 s           0.217 s
          | Total time for Hartree multipole update    :        0.141 s           0.142 s
          | Total time for Hartree multipole sum       :        5.788 s           5.798 s
          | Total time for total energy evaluation     :        0.003 s           0.004 s
          | Total time for vdW correction              :        0.090 s           0.090 s

          Partial memory accounting:
          | Residual value for overall tracked memory usage across tasks :           0.000 MB (should be 0.000 MB)
          | Peak values for overall tracked memory usage (after allocating hessian_basis_wave):
          |   Minimum:        1.622 MB (on task 1)
          |   Maximum:        1.622 MB (on task 1)
          |   Average:        1.622 MB
          | Largest tracked array allocation (hessian_basis_wave):
          |   Minimum:        0.794 MB (on task 1)
          |   Maximum:        0.794 MB (on task 1)
          |   Average:        0.794 MB
          Note:  These values currently only include a subset of arrays which are explicitly tracked.
          The "true" memory usage will be greater.

          Have a nice day.
------------------------------------------------------------
