  MPI-parallelism will be employed.
------------------------------------------------------------
          Invoking FHI-aims ...
          Version 171221_1
          Compiled on 2019/09/09 at 14:39:39 on host puhti-login2.bullx.

          When using FHI-aims, please cite the following reference:

          Volker Blum, Ralf Gehrke, Felix Hanke, Paula Havu,
          Ville Havu, Xinguo Ren, Karsten Reuter, and Matthias Scheffler,
          'Ab Initio Molecular Simulations with Numeric Atom-Centered Orbitals',
          Computer Physics Communications 180, 2175-2196 (2009)

          For any questions about FHI-aims, please visit the aimsclub website
          with its forums and wiki. Contributions to both the forums and the
          wiki are warmly encouraged - they are for you, and everyone is welcome there.

------------------------------------------------------------



  Date     :  20200710, Time     :  145811.414
  Time zero on CPU 1             :   0.154760000000000E-01  s.
  Internal wall clock time zero  :           363625091.414  s.

  FHI-aims created a unique identifier for this run for later identification
  aims_uuid : 2E636BA9-13A2-4402-A476-4F4E8B33BE66

  Using        1 parallel tasks.
  Task        0 on host r18c41.bullx reporting.

  Performing system and environment tests:
  | Environment variable OMP_NUM_THREADS correctly set to 1.
  | Stacksize not measured: no C compiler
  | Checking for scalapack...
  | Testing pdtran()...
  | All pdtran() tests passed.

  Obtaining array dimensions for all initial allocations:
  
  -----------------------------------------------------------------------
  Parsing control.in (first pass over file, find array dimensions only).
  The contents of control.in will be repeated verbatim below
  unless switched off by setting 'verbatim_writeout .false.' .
  in the first line of control.in .
  -----------------------------------------------------------------------
  
  #########################################################################################
  #
  #  Volker Blum, FHI 2009 : Test run input file control.in for simple H2O
  #
  #########################################################################################
  #
  #  Physical model
  #
    xc                 pbe
    vdw_correction_hirshfeld
    spin               none
    relativistic       none
    charge             0.
  #
  #  SCF convergence
  #
    occupation_type    gaussian 0.01
    mixer              pulay
      n_max_pulay        10
      charge_mix_param   0.2
    sc_accuracy_rho    1E-5
    sc_accuracy_eev    1E-3
    sc_accuracy_etot   1E-6
    sc_accuracy_forces 1E-4
    sc_iter_limit      100
  #
  #  Relaxation
  #
  #  relax_geometry   bfgs 1.e-3
  #
  ################################################################################
  #
  #  FHI-aims code project
  #  VB, Fritz-Haber Institut, 2009
  #
  #  Suggested "light" defaults for H atom (to be pasted into control.in file)
  #  Be sure to double-check any results obtained with these settings for post-processing,
  #  e.g., with the "tight" defaults and larger basis sets.
  #
  ################################################################################
    species        H
  #     global species definitions
      nucleus             1
      mass                1.00794
  #
      l_hartree           4
  #
      cut_pot             3.5  1.5  1.0
      basis_dep_cutoff    1e-4
  #
      radial_base         24 5.0
      radial_multiplier   1
      angular_grids       specified
        division   0.2421   50
        division   0.3822  110
        division   0.4799  194
        division   0.5341  302
  #      division   0.5626  434
  #      division   0.5922  590
  #      division   0.6542  770
  #      division   0.6868 1202
  #      outer_grid  770
        outer_grid  302
  ################################################################################
  #
  #  Definition of "minimal" basis
  #
  ################################################################################
  #     valence basis states
      valence      1  s   1.
  #     ion occupancy
      ion_occ      1  s   0.5
  ################################################################################
  #
  #  Suggested additional basis functions. For production calculations,
  #  uncomment them one after another (the most important basis functions are
  #  listed first).
  #
  #  Basis constructed for dimers: 0.5 A, 0.7 A, 1.0 A, 1.5 A, 2.5 A
  #
  ################################################################################
  #  "First tier" - improvements: -1014.90 meV to -62.69 meV
       hydro 2 s 2.1
       hydro 2 p 3.5
  #  "Second tier" - improvements: -12.89 meV to -1.83 meV
  #     hydro 1 s 0.85
  #     hydro 2 p 3.7
  #     hydro 2 s 1.2
  #     hydro 3 d 7
  #  "Third tier" - improvements: -0.25 meV to -0.12 meV
  #     hydro 4 f 11.2
  #     hydro 3 p 4.8
  #     hydro 4 d 9
  #     hydro 3 s 3.2
  ################################################################################
  #
  #  FHI-aims code project
  #  VB, Fritz-Haber Institut, 2009
  #
  #  Suggested "light" defaults for C atom (to be pasted into control.in file)
  #  Be sure to double-check any results obtained with these settings for post-processing,
  #  e.g., with the "tight" defaults and larger basis sets.
  #
  ################################################################################
    species        C
  #     global species definitions
      nucleus             6
      mass                12.0107
  #
      l_hartree           4
  #
      cut_pot             3.5  1.5  1.0
      basis_dep_cutoff    1e-4
  #
      radial_base         34 5.0
      radial_multiplier   1
      angular_grids specified
        division   0.3326   50
        division   0.5710  110
        division   0.7727  194
        division   0.8772  302
  #      division   0.9334  434
  #      division   0.9625  590
  #      division   0.9924  770
  #      division   1.0230  974
  #      division   1.4589 1202
  #     outer_grid  974
       outer_grid 302
  ################################################################################
  #
  #  Definition of "minimal" basis
  #
  ################################################################################
  #     valence basis states
      valence      2  s   2.
      valence      2  p   2.
  #     ion occupancy
      ion_occ      2  s   1.
      ion_occ      2  p   1.
  ################################################################################
  #
  #  Suggested additional basis functions. For production calculations,
  #  uncomment them one after another (the most important basis functions are
  #  listed first).
  #
  #  Constructed for dimers: 1.0 A, 1.25 A, 1.5 A, 2.0 A, 3.0 A
  #
  ################################################################################
  #  "First tier" - improvements: -1214.57 meV to -155.61 meV
       hydro 2 p 1.7
       hydro 3 d 6
       hydro 2 s 4.9
  #  "Second tier" - improvements: -67.75 meV to -5.23 meV
  #     hydro 4 f 9.8
  #     hydro 3 p 5.2
  #     hydro 3 s 4.3
  #     hydro 5 g 14.4
  #     hydro 3 d 6.2
  #  "Third tier" - improvements: -2.43 meV to -0.60 meV
  #     hydro 2 p 5.6
  #     hydro 2 s 1.4
  #     hydro 3 d 4.9
  #     hydro 4 f 11.2
  #  "Fourth tier" - improvements: -0.39 meV to -0.18 meV
  #     hydro 2 p 2.1
  #     hydro 5 g 16.4
  #     hydro 4 d 13.2
  #     hydro 3 s 13.6
  #     hydro 4 f 17.6
  #  Further basis functions - improvements: -0.08 meV and below
  #     hydro 3 s 2
  #     hydro 3 p 6
  #     hydro 4 d 20
  ################################################################################
  #
  #  FHI-aims code project
  #  VB, Fritz-Haber Institut, 2009
  #
  #  Suggested "light" defaults for N atom (to be pasted into control.in file)
  #  Be sure to double-check any results obtained with these settings for post-processing,
  #  e.g., with the "tight" defaults and larger basis sets.
  #
  ################################################################################
    species        N
  #     global species definitions
      nucleus             7
      mass                14.0067
  #
      l_hartree           4
  #
      cut_pot             3.5  1.5  1.0
      basis_dep_cutoff    1e-4
  #
      radial_base         35 5.0
      radial_multiplier   1
      angular_grids       specified
        division   0.2599   50
        division   0.4601  110
        division   0.5885  194
        division   0.6503  302
  #      division   0.6939  434
  #      division   0.7396  590
  #      division   0.7632  770
  #      division   0.8122  974
  #      division   1.1604 1202
  #      outer_grid  974
        outer_grid  302
  ################################################################################
  #
  #  Definition of "minimal" basis
  #
  ################################################################################
  #     valence basis states
      valence      2  s   2.
      valence      2  p   3.
  #     ion occupancy
      ion_occ      2  s   1.
      ion_occ      2  p   2.
  ################################################################################
  #
  #  Suggested additional basis functions. For production calculations,
  #  uncomment them one after another (the most important basis functions are
  #  listed first).
  #
  #  Constructed for dimers: 1.0 A, 1.1 A, 1.5 A, 2.0 A, 3.0 A
  #
  ################################################################################
  #  "First tier" - improvements: -1193.42 meV to -220.60 meV
       hydro 2 p 1.8
       hydro 3 d 6.8
       hydro 3 s 5.8
  #  "Second tier" - improvements: -80.21 meV to -6.86 meV
  #     hydro 4 f 10.8
  #     hydro 3 p 5.8
  #     hydro 1 s 0.8
  #     hydro 5 g 16
  #     hydro 3 d 4.9
  #  "Third tier" - improvements: -4.29 meV to -0.53 meV
  #     hydro 3 s 16
  #     ionic 2 p auto
  #     hydro 3 d 6.6
  #     hydro 4 f 11.6
  #  "Fourth tier" - improvements: -0.75 meV to -0.25 meV
  #     hydro 2 p 4.5
  #     hydro 2 s 2.4
  #     hydro 5 g 14.4
  #     hydro 4 d 14.4
  #     hydro 4 f 16.8
  # Further basis functions - -0.21 meV and below
  #     hydro 3 p 14.8
  #     hydro 3 s 4.4
  #     hydro 3 d 19.6
  #     hydro 5 g 12.8
  ################################################################################
  #
  #  FHI-aims code project
  #  VB, Fritz-Haber Institut, 2009
  #
  #  Suggested "light" defaults for O atom (to be pasted into control.in file)
  #  Be sure to double-check any results obtained with these settings for post-processing,
  #  e.g., with the "tight" defaults and larger basis sets.
  #
  ################################################################################
    species        O
  #     global species definitions
      nucleus             8
      mass                15.9994
  #
      l_hartree           4
  #
      cut_pot             3.5  1.5  1.0
      basis_dep_cutoff    1e-4
  #
      radial_base         36 5.0
      radial_multiplier   1
       angular_grids specified
        division   0.2659   50
        division   0.4451  110
        division   0.6052  194
        division   0.7543  302
  #      division   0.8014  434
  #      division   0.8507  590
  #      division   0.8762  770
  #      division   0.9023  974
  #      division   1.2339 1202
  #      outer_grid 974
        outer_grid 302
  ################################################################################
  #
  #  Definition of "minimal" basis
  #
  ################################################################################
  #     valence basis states
      valence      2  s   2.
      valence      2  p   4.
  #     ion occupancy
      ion_occ      2  s   1.
      ion_occ      2  p   3.
  ################################################################################
  #
  #  Suggested additional basis functions. For production calculations,
  #  uncomment them one after another (the most important basis functions are
  #  listed first).
  #
  #  Constructed for dimers: 1.0 A, 1.208 A, 1.5 A, 2.0 A, 3.0 A
  #
  ################################################################################
  #  "First tier" - improvements: -699.05 meV to -159.38 meV
       hydro 2 p 1.8
       hydro 3 d 7.6
       hydro 3 s 6.4
  #  "Second tier" - improvements: -49.91 meV to -5.39 meV
  #     hydro 4 f 11.6
  #     hydro 3 p 6.2
  #     hydro 3 d 5.6
  #     hydro 5 g 17.6
  #     hydro 1 s 0.75
  #  "Third tier" - improvements: -2.83 meV to -0.50 meV
  #     ionic 2 p auto
  #     hydro 4 f 10.8
  #     hydro 4 d 4.7
  #     hydro 2 s 6.8
  #  "Fourth tier" - improvements: -0.40 meV to -0.12 meV
  #     hydro 3 p 5
  #     hydro 3 s 3.3
  #     hydro 5 g 15.6
  #     hydro 4 f 17.6
  #     hydro 4 d 14
  # Further basis functions - -0.08 meV and below
  #     hydro 3 s 2.1
  #     hydro 4 d 11.6
  #     hydro 3 p 16
  #     hydro 2 s 17.2
  
  -----------------------------------------------------------------------
  Completed first pass over input file control.in .
  -----------------------------------------------------------------------
  
  
  -----------------------------------------------------------------------
  Parsing geometry.in (first pass over file, find array dimensions only).
  The contents of geometry.in will be repeated verbatim below
  unless switched off by setting 'verbatim_writeout .false.' .
  in the first line of geometry.in .
  -----------------------------------------------------------------------
  
  atom  0.00000 0.00000 0.00000 C
  atom  1.09300 0.00000 0.00000 H
  atom  -0.47961 0.00000 -1.41207 N
  atom  -0.02009 -0.76103 -1.91358 H
  atom  -1.48844 -0.13557 -1.41462 H
  atom  -0.49584 1.26211 0.72868 C
  atom  -1.58789 1.28919 0.74431 H
  atom  -0.13407 1.27425 1.75947 H
  atom  -0.13407 2.16087 0.22380 H
  atom  -0.39425 -1.28861 0.74398 C
  atom  -0.10189 -1.56493 1.88303 O
  atom  -1.10210 -2.13717 0.06896 O
  atom  -1.73994 -1.51385 -0.31784 H
  
  -----------------------------------------------------------------------
  Completed first pass over input file geometry.in .
  -----------------------------------------------------------------------
  

  Basic array size parameters:
  | Number of species                 :        4
  | Number of atoms                   :       13
  | Max. basis fn. angular momentum   :        2
  | Max. atomic/ionic basis occupied n:        2
  | Max. number of basis fn. types    :        2
  | Max. radial fns per species/type  :        3
  | Max. logarithmic grid size        :     1301
  | Max. radial integration grid size :       36
  | Max. angular integration grid size:      302
  | Max. angular grid division number :        8
  | Radial grid for Hartree potential :     1301
  | Number of spin channels           :        1

------------------------------------------------------------
          Reading file control.in.
------------------------------------------------------------
  XC: Using PBE gradient-corrected functionals.
  Spin treatment: No spin polarisation.
  Non-relativistic treatment of kinetic energy.
  Charge =   0.000000E+00: Neutral system requested explicitly.
  Occupation type: Gaussian broadening, width =   0.100000E-01 eV.
  Using pulay charge density mixing.
  Pulay mixing - number of memorized iterations:   10
  Charge density mixing - mixing parameter:     0.2000
  Convergence accuracy of self-consistent charge density:  0.1000E-04
  Convergence accuracy of sum of eigenvalues:  0.1000E-02
  Convergence accuracy of total energy:  0.1000E-05
  Convergence accuracy of forces:  0.1000E-03
  Maximum number of s.-c. iterations  :   100
 
  Reading configuration options for species H                   .
  | Found nuclear charge :   1.0000
  | Found atomic mass :    1.00794000000000      amu
  | Found l_max for Hartree potential  :   4
  | Found cutoff potl. onset [A], width [A], scale factor :    3.50000    1.50000    1.00000
  | Threshold for basis-dependent cutoff potential is   0.100000E-03
  | Found data for basic radial integration grid :    24 points, outermost radius =    5.000 A
  | Found multiplier for basic radial grid :   1
  | Found angular grid specification: user-specified.
  | Specified grid contains     5 separate shells.
  | Check grid settings after all constraints further below.
  | Found free-atom valence shell :  1 s   1.000
  | No ionic wave fns used. Skipping ion_occ.
  | Found hydrogenic basis function :  2 s   2.100
  | Found hydrogenic basis function :  2 p   3.500
  Species H                   : Missing cutoff potential type.
  Defaulting to exp(1/x)/(1-x)^2 type cutoff potential.
  Species H : No 'logarithmic' tag. Using default grid for free atom:
  | Default logarithmic grid data [bohr] : 0.1000E-03 0.1000E+03 0.1012E+01
  Species H : On-site basis accuracy parameter (for Gram-Schmidt orthonormalisation) not specified.
  Using default value basis_acc =  0.1000000E-03.
  Species H                   : Using default innermost maximum threshold i_radial=  2 for radial functions.
  Species H                   : Default cutoff onset for free atom density etc. : 0.35000000E+01 AA.
  Species H                   : Basic radial grid will be enhanced according to radial_multiplier =   1, to contain    24 grid points.
 
  Reading configuration options for species C                   .
  | Found nuclear charge :   6.0000
  | Found atomic mass :    12.0107000000000      amu
  | Found l_max for Hartree potential  :   4
  | Found cutoff potl. onset [A], width [A], scale factor :    3.50000    1.50000    1.00000
  | Threshold for basis-dependent cutoff potential is   0.100000E-03
  | Found data for basic radial integration grid :    34 points, outermost radius =    5.000 A
  | Found multiplier for basic radial grid :   1
  | Found angular grid specification: user-specified.
  | Specified grid contains     5 separate shells.
  | Check grid settings after all constraints further below.
  | Found free-atom valence shell :  2 s   2.000
  | Found free-atom valence shell :  2 p   2.000
  | No ionic wave fns used. Skipping ion_occ.
  | No ionic wave fns used. Skipping ion_occ.
  | Found hydrogenic basis function :  2 p   1.700
  | Found hydrogenic basis function :  3 d   6.000
  | Found hydrogenic basis function :  2 s   4.900
  Species C                   : Missing cutoff potential type.
  Defaulting to exp(1/x)/(1-x)^2 type cutoff potential.
  Species C : No 'logarithmic' tag. Using default grid for free atom:
  | Default logarithmic grid data [bohr] : 0.1000E-03 0.1000E+03 0.1012E+01
  Species C : On-site basis accuracy parameter (for Gram-Schmidt orthonormalisation) not specified.
  Using default value basis_acc =  0.1000000E-03.
  Species C                   : Using default innermost maximum threshold i_radial=  2 for radial functions.
  Species C                   : Default cutoff onset for free atom density etc. : 0.35000000E+01 AA.
  Species C                   : Basic radial grid will be enhanced according to radial_multiplier =   1, to contain    34 grid points.
 
  Reading configuration options for species N                   .
  | Found nuclear charge :   7.0000
  | Found atomic mass :    14.0067000000000      amu
  | Found l_max for Hartree potential  :   4
  | Found cutoff potl. onset [A], width [A], scale factor :    3.50000    1.50000    1.00000
  | Threshold for basis-dependent cutoff potential is   0.100000E-03
  | Found data for basic radial integration grid :    35 points, outermost radius =    5.000 A
  | Found multiplier for basic radial grid :   1
  | Found angular grid specification: user-specified.
  | Specified grid contains     5 separate shells.
  | Check grid settings after all constraints further below.
  | Found free-atom valence shell :  2 s   2.000
  | Found free-atom valence shell :  2 p   3.000
  | No ionic wave fns used. Skipping ion_occ.
  | No ionic wave fns used. Skipping ion_occ.
  | Found hydrogenic basis function :  2 p   1.800
  | Found hydrogenic basis function :  3 d   6.800
  | Found hydrogenic basis function :  3 s   5.800
  Species N                   : Missing cutoff potential type.
  Defaulting to exp(1/x)/(1-x)^2 type cutoff potential.
  Species N : No 'logarithmic' tag. Using default grid for free atom:
  | Default logarithmic grid data [bohr] : 0.1000E-03 0.1000E+03 0.1012E+01
  Species N : On-site basis accuracy parameter (for Gram-Schmidt orthonormalisation) not specified.
  Using default value basis_acc =  0.1000000E-03.
  Species N                   : Using default innermost maximum threshold i_radial=  2 for radial functions.
  Species N                   : Default cutoff onset for free atom density etc. : 0.35000000E+01 AA.
  Species N                   : Basic radial grid will be enhanced according to radial_multiplier =   1, to contain    35 grid points.
 
  Reading configuration options for species O                   .
  | Found nuclear charge :   8.0000
  | Found atomic mass :    15.9994000000000      amu
  | Found l_max for Hartree potential  :   4
  | Found cutoff potl. onset [A], width [A], scale factor :    3.50000    1.50000    1.00000
  | Threshold for basis-dependent cutoff potential is   0.100000E-03
  | Found data for basic radial integration grid :    36 points, outermost radius =    5.000 A
  | Found multiplier for basic radial grid :   1
  | Found angular grid specification: user-specified.
  | Specified grid contains     5 separate shells.
  | Check grid settings after all constraints further below.
  | Found free-atom valence shell :  2 s   2.000
  | Found free-atom valence shell :  2 p   4.000
  | No ionic wave fns used. Skipping ion_occ.
  | No ionic wave fns used. Skipping ion_occ.
  | Found hydrogenic basis function :  2 p   1.800
  | Found hydrogenic basis function :  3 d   7.600
  | Found hydrogenic basis function :  3 s   6.400
  Species O                   : Missing cutoff potential type.
  Defaulting to exp(1/x)/(1-x)^2 type cutoff potential.
  Species O : No 'logarithmic' tag. Using default grid for free atom:
  | Default logarithmic grid data [bohr] : 0.1000E-03 0.1000E+03 0.1012E+01
  Species O : On-site basis accuracy parameter (for Gram-Schmidt orthonormalisation) not specified.
  Using default value basis_acc =  0.1000000E-03.
  Species O                   : Using default innermost maximum threshold i_radial=  2 for radial functions.
  Species O                   : Default cutoff onset for free atom density etc. : 0.35000000E+01 AA.
  Species O                   : Basic radial grid will be enhanced according to radial_multiplier =   1, to contain    36 grid points.
 
  Finished reading input file 'control.in'. Consistency checks are next.
 
  MPI_IN_PLACE appears to work with this MPI implementation.
  | Keeping use_mpi_in_place .true. (see manual).
  Target number of points in a grid batch is not set. Defaulting to  100
  Method for grid partitioning is not set. Defaulting to parallel hash+maxmin partitioning.
  Batch size limit is not set. Defaulting to    200
  By default, will store active basis functions for each batch.
  If in need of memory, prune_basis_once .false. can be used to disable this option.
  communication_type for Hartree potential was not specified.
  Defaulting to calc_hartree .
  Pulay mixer: Number of initial linear mixing iterations not set.
  Defaulting to    0 iterations.
  Work space size for distributed Hartree potential not set.
  Defaulting to   0.200000E+03 MB.
  Algorithm-dependent basis array size parameters:
  | n_max_pulay                         :       10
  Presetting      1001 iterations before the initial mixing cycle
  is restarted anyway using the sc_init_iter criterion / keyword.
  Presetting a factor      1.000 between actual scf density residual
  and density convergence criterion sc_accuracy_rho below which sc_init_iter
  takes no effect.
  Geometry relaxation not requested: no relaxation will be performed.
  Handling of forces: Unphysical translation and rotation will be removed from forces.
  No accuracy limit for integral partition fn. given. Defaulting to  0.1000E-14.
  No threshold value for u(r) in integrations given. Defaulting to  0.1000E-05.
  No accuracy for occupation numbers given. Defaulting to  0.1000E-12.
  No threshold value for occupation numbers given. Defaulting to  0.0000E+00.
  No accuracy for fermi level given. Defaulting to  0.1000E-19.
  Maximum # of iterations to find E_F not set. Defaulting to  200.
  Preferred method for the eigenvalue solver ('KS_method') not specified in 'control.in'.
  Defaulting to serial version, 'lapack_fast'.
  Will not use alltoall communication since running on < 1024 CPUs.
  Threshold for basis singularities not set.
  Default threshold for basis singularities:  0.1000E-04
  partition_type (choice of integration weights) for integrals was not specified.
  | Using a version of the partition function of Stratmann and coworkers ('stratmann_smoother').
  | At each grid point, the set of atoms used to build the partition table is smoothly restricted to
  | only those atoms whose free-atom density would be non-zero at that grid point.
  Partitioning for Hartree potential was not defined. Using partition_type for integrals.
  | Adjusted default value of keyword multip_moments_threshold to:       0.10000000E-11
  | This value may affect high angular momentum components of the Hartree potential in periodic systems.
  No q(lm)/r^(l+1) cutoff set for long-range Hartree potential.
  | Using default value of  0.100000E-09 .
  | Verify using the multipole_threshold keyword.
  Defaulting to new monopole extrapolation.
  Density update method: automatic selection selected.
------------------------------------------------------------


------------------------------------------------------------
          Reading geometry description geometry.in.
------------------------------------------------------------
  Input structure read successfully.
  The structure contains       13 atoms,  and a total of         48.000 electrons.

  Input geometry:
  | No unit cell requested.
  | Atomic structure:
  |       Atom                x [A]            y [A]            z [A]
  |    1: Species C             0.00000000        0.00000000        0.00000000
  |    2: Species H             1.09300000        0.00000000        0.00000000
  |    3: Species N            -0.47961000        0.00000000       -1.41207000
  |    4: Species H            -0.02009000       -0.76103000       -1.91358000
  |    5: Species H            -1.48844000       -0.13557000       -1.41462000
  |    6: Species C            -0.49584000        1.26211000        0.72868000
  |    7: Species H            -1.58789000        1.28919000        0.74431000
  |    8: Species H            -0.13407000        1.27425000        1.75947000
  |    9: Species H            -0.13407000        2.16087000        0.22380000
  |   10: Species C            -0.39425000       -1.28861000        0.74398000
  |   11: Species O            -0.10189000       -1.56493000        1.88303000
  |   12: Species O            -1.10210000       -2.13717000        0.06896000
  |   13: Species H            -1.73994000       -1.51385000       -0.31784000
  |

  | The smallest distance between any two atoms is         0.97210181 AA.
  |
  | The first atom of this pair is atom number                     12 .
  | The second atom of this pair is atom number                    13 .

  Number of empty states per atom not set in control.in - providing a guess from actual geometry.
  | Total number of empty states used during s.c.f. cycle:       29
  If you use a very high smearing, use empty_states (per atom!) in control.in to increase this value.

  Structure-dependent array size parameters: 
  | Maximum number of distinct radial functions  :       21
  | Maximum number of basis functions            :      119
  | Number of Kohn-Sham states (occupied + empty):       53
------------------------------------------------------------

------------------------------------------------------------
          Preparing all fixed parts of the calculation.
------------------------------------------------------------
  Determining machine precision:
    2.225073858507201E-308
  Setting up grids for atomic and cluster calculations.

  Creating wave function, potential, and density for free atoms.

  Species: H

  List of occupied orbitals and eigenvalues:
    n    l              occ      energy [Ha]    energy [eV]
    1    0           1.0000        -0.237589        -6.4651


  Species: C

  List of occupied orbitals and eigenvalues:
    n    l              occ      energy [Ha]    energy [eV]
    1    0           2.0000       -10.038835      -273.1706
    2    0           2.0000        -0.502696       -13.6791
    2    1           2.0000        -0.191971        -5.2238


  Species: N

  List of occupied orbitals and eigenvalues:
    n    l              occ      energy [Ha]    energy [eV]
    1    0           2.0000       -14.128000      -384.4424
    2    0           2.0000        -0.681077       -18.5330
    2    1           3.0000        -0.259788        -7.0692


  Species: O

  List of occupied orbitals and eigenvalues:
    n    l              occ      energy [Ha]    energy [eV]
    1    0           2.0000       -18.898188      -514.2459
    2    0           2.0000        -0.878505       -23.9053
    2    1           4.0000        -0.331779        -9.0282

  Creating fixed part of basis set: Ionic, confined, hydrogenic.
 
  H                    hydrogenic:
 
  List of hydrogenic basis orbitals: 
    n    l      effective z      eigenvalue [eV]  inner max. [A]     outer max. [A]     outer radius [A]   
    2    0         2.100000       -14.9728           0.193243           1.317208           4.583499
    2    1         3.500000       -41.6669           0.602369           0.602369           3.723403
 
 
  C                    hydrogenic:
 
  List of hydrogenic basis orbitals: 
    n    l      effective z      eigenvalue [eV]  inner max. [A]     outer max. [A]     outer radius [A]   
    2    1         1.700000        -9.7616           1.230570           1.230570           4.607917
    3    2         6.000000       -54.4224           0.792453           0.792453           3.883070
    2    0         4.900000       -81.6679           0.082559           0.562749           3.078220
 
 
  N                    hydrogenic:
 
  List of hydrogenic basis orbitals: 
    n    l      effective z      eigenvalue [eV]  inner max. [A]     outer max. [A]     outer radius [A]   
    2    1         1.800000       -10.9749           1.177451           1.177451           4.573712
    3    2         6.800000       -69.9026           0.704619           0.704619           3.538137
    3    0         5.800000       -50.8545           0.067388           1.191934           4.250239
 
 
  O                    hydrogenic:
 
  List of hydrogenic basis orbitals: 
    n    l      effective z      eigenvalue [eV]  inner max. [A]     outer max. [A]     outer radius [A]   
    2    1         1.800000       -10.9749           1.164242           1.164242           4.578029
    3    2         7.600000       -87.3180           0.624125           0.624125           3.251020
    3    0         6.400000       -61.9207           0.061167           1.081902           4.001998
 

  Adding cutoff potential to free-atom effective potential.
  Creating atomic-like basis functions for current effective potential.

  Species H                   :

  List of atomic basis orbitals and eigenvalues:
    n    l      energy [Ha]    energy [eV]    outer radius [A]
    1    0        -0.237589        -6.4651       4.527807


  Species C                   :

  List of atomic basis orbitals and eigenvalues:
    n    l      energy [Ha]    energy [eV]    outer radius [A]
    1    0       -10.038835      -273.1706       1.934409
    2    0        -0.502696       -13.6791       4.496620
    2    1        -0.191971        -5.2238       4.551928


  Species N                   :

  List of atomic basis orbitals and eigenvalues:
    n    l      energy [Ha]    energy [eV]    outer radius [A]
    1    0       -14.128000      -384.4424       1.637919
    2    0        -0.681077       -18.5330       4.463241
    2    1        -0.259788        -7.0692       4.518138


  Species O                   :

  List of atomic basis orbitals and eigenvalues:
    n    l      energy [Ha]    energy [eV]    outer radius [A]
    1    0       -18.898188      -514.2459       1.415765
    2    0        -0.878505       -23.9053       4.413171
    2    1        -0.331779        -9.0282       4.522403

  Assembling full basis from fixed parts.
  | Species H :   atomic orbital   1 s accepted.
  | Species H :    hydro orbital   2 s accepted.
  | Species H :    hydro orbital   2 p accepted.
  | Species C :   atomic orbital   1 s accepted.
  | Species C :    hydro orbital   2 s accepted.
  | Species C :   atomic orbital   2 s accepted.
  | Species C :   atomic orbital   2 p accepted.
  | Species C :    hydro orbital   2 p accepted.
  | Species C :    hydro orbital   3 d accepted.
  | Species N :   atomic orbital   1 s accepted.
  | Species N :    hydro orbital   3 s accepted.
  | Species N :   atomic orbital   2 s accepted.
  | Species N :   atomic orbital   2 p accepted.
  | Species N :    hydro orbital   2 p accepted.
  | Species N :    hydro orbital   3 d accepted.
  | Species O :   atomic orbital   1 s accepted.
  | Species O :    hydro orbital   3 s accepted.
  | Species O :   atomic orbital   2 s accepted.
  | Species O :   atomic orbital   2 p accepted.
  | Species O :    hydro orbital   2 p accepted.
  | Species O :    hydro orbital   3 d accepted.
 
  Basis size parameters after reduction:
  | Total number of radial functions:       21
  | Total number of basis functions :      119
 
  Per-task memory consumption for arrays in subroutine allocate_ext:
  |           5.250512MB.
  Testing on-site integration grid accuracy.
  |  Species  Function  <phi|h_atom|phi> (log., in eV)  <phi|h_atom|phi> (rad., in eV)
           1        1                 -6.4663192853                 -6.4651273558
           1        2                 13.7111246313                 13.7170609718
           1        3                 25.2673269279                 25.2674696378
           2        4               -273.1705927641               -273.1705631568
           2        5                -10.7109323383                -10.7107120029
           2        6                 17.4381822266                 17.4352413244
           2        7                 -5.2255326521                 -5.2270484734
           2        8                  8.6835629259                  8.6603288385
           2        9                 27.4952418996                 27.4953360207
           3       10               -384.4424306495               -384.4423701208
           3       11                 12.5842251816                 12.5842222903
           3       12                -15.7264628251                -15.7264433455
           3       13                 -7.0696854293                 -7.0701769954
           3       14                  8.8090390882                  8.7901077751
           3       15                 35.9586762123                 35.9588528632
           4       16               -514.2458688638               -514.2457643834
           4       17                 15.1795651126                 15.1795290741
           4       18                -21.5359799773                -21.5360846186
           4       19                 -9.0283069236                 -9.0284644067
           4       20                  8.3027758564                  8.2834874195
           4       21                 45.8339351984                 45.8338762259

  Preparing densities etc. for the partition functions (integrals / Hartree potential).

  Preparations completed.
  max(cpu_time)          :      0.143 s.
  Wall clock time (cpu1) :      0.150 s.
------------------------------------------------------------

------------------------------------------------------------
          Begin self-consistency loop: Initialization.

          Date     :  20200710, Time     :  145811.579
------------------------------------------------------------

  Initializing index lists of integration centers etc. from given atomic structure:
  | Number of centers in hartree potential         :        13
  | Number of centers in hartree multipole         :        13
  | Number of centers in electron density summation:        13
  | Number of centers in basis integrals           :        13
  | Number of centers in integrals                 :        13
  | Number of centers in hamiltonian               :        13
  Partitioning the integration grid into batches with parallel hashing+maxmin method.
  | Number of batches:      957
  | Maximal batch size:     139
  | Minimal batch size:      66
  | Average batch size:      72.775
  | Standard deviation of batch sizes:      17.369

  Integration load balanced across     1 MPI tasks.
  Work distribution over tasks is as follows:
  Task     0 has      69646 integration points.
  Initializing partition tables, free-atom densities, potentials, etc. across the integration grid (initialize_grid_storage).
  | initialize_grid_storage: Actual outermost partition radius vs. multipole_radius_free
  | (-- VB: in principle, multipole_radius_free should be larger, hence this output)
  | Species        1: Confinement radius =              4.999999999999999 AA, multipole_radius_free =              5.054417573612229 AA.
  | Species        1: outer_partition_radius set to              5.054417573612229 AA .
  | Species        2: Confinement radius =              4.999999999999999 AA, multipole_radius_free =              5.019602836301480 AA.
  | Species        2: outer_partition_radius set to              5.019602836301480 AA .
  | Species        3: Confinement radius =              4.999999999999999 AA, multipole_radius_free =              5.043624274424571 AA.
  | Species        3: outer_partition_radius set to              5.043624274424571 AA .
  | Species        4: Confinement radius =              4.999999999999999 AA, multipole_radius_free =              5.048384829883283 AA.
  | Species        4: outer_partition_radius set to              5.048384829883283 AA .
  | Original list of interatomic distances with          13 x         13 entries is created.
  | Net number of integration points:    69646
  | of which are non-zero points    :    59384
  Renormalizing the initial density to the exact electron count on the 3D integration grid.
  | Initial density: Formal number of electrons (from input files) :      48.0000000000
  | Integrated number of electrons on 3D grid     :      48.0000830239
  | Charge integration error                      :       0.0000830239
  | Normalization factor for density and gradient :       0.9999982703
  Obtaining max. number of non-zero basis functions in each batch (get_n_compute_maxes).
  | Maximal number of non-zero basis functions:      119 in task     0
  Selecting the method for density update.
  Loop over occupied states selected for charge density update.
  Allocating        0.050 MB for KS_eigenvector
  Integrating Hamiltonian matrix: batch-based integration.
  Time summed over all CPUs for integration: real work        0.498 s, elapsed        0.498 s
  Integrating overlap matrix.
  Time summed over all CPUs for integration: real work        0.212 s, elapsed        0.212 s

  Updating Kohn-Sham eigenvalues and eigenvectors using ELSI and the ELPA eigensolver.
  Overlap matrix is nonsingular
  | Lowest eigenvalue of overlap  :  0.43E-02
  | Highest eigenvalue of overlap :  0.64E+01
  Finished singularity check of overlap matrix
  | Time :     0.002 s
  Finished Cholesky decomposition
  | Time :     0.000 s
  Finished transformation to standard eigenproblem
  | Time :     0.000 s
  Starting LAPACK eigensolver
  Finished solving standard eigenproblem
  | Time :     0.002 s
  Finished back-transformation of eigenvectors
  | Time :     0.000 s

  Obtaining occupation numbers and chemical potential using ELSI.
  | Chemical potential (Fermi level):    -8.80378323eV
  Writing Kohn-Sham eigenvalues.

  State    Occupation    Eigenvalue [Ha]    Eigenvalue [eV]
      1       2.00000         -19.007803         -517.22863
      2       2.00000         -18.977145         -516.39439
      3       2.00000         -14.246343         -387.66271
      4       2.00000         -10.166654         -276.64874
      5       2.00000         -10.141654         -275.96845
      6       2.00000         -10.132059         -275.70735
      7       2.00000          -1.182419          -32.17525
      8       2.00000          -1.100619          -29.94936
      9       2.00000          -0.991941          -26.99209
     10       2.00000          -0.861481          -23.44209
     11       2.00000          -0.752044          -20.46416
     12       2.00000          -0.679305          -18.48482
     13       2.00000          -0.638544          -17.37567
     14       2.00000          -0.619111          -16.84686
     15       2.00000          -0.577397          -15.71178
     16       2.00000          -0.563034          -15.32094
     17       2.00000          -0.547467          -14.89734
     18       2.00000          -0.540196          -14.69949
     19       2.00000          -0.513585          -13.97536
     20       2.00000          -0.486849          -13.24783
     21       2.00000          -0.468543          -12.74972
     22       2.00000          -0.429974          -11.70018
     23       2.00000          -0.424413          -11.54888
     24       2.00000          -0.378392          -10.29658
     25       0.00000          -0.154824           -4.21297
     26       0.00000          -0.079223           -2.15578
     27       0.00000          -0.031696           -0.86251
     28       0.00000          -0.019717           -0.53654
     29       0.00000           0.009095            0.24749
     30       0.00000           0.014865            0.40450
     31       0.00000           0.025665            0.69838
     32       0.00000           0.029991            0.81609
     33       0.00000           0.045735            1.24452
     34       0.00000           0.067194            1.82844
     35       0.00000           0.089687            2.44050
     36       0.00000           0.134074            3.64834
     37       0.00000           0.174208            4.74044
     38       0.00000           0.203917            5.54886
     39       0.00000           0.214734            5.84322
     40       0.00000           0.232030            6.31386
     41       0.00000           0.239732            6.52345
     42       0.00000           0.265896            7.23541
     43       0.00000           0.282688            7.69233
     44       0.00000           0.295283            8.03506
     45       0.00000           0.310373            8.44567
     46       0.00000           0.358229            9.74792
     47       0.00000           0.363759            9.89839
     48       0.00000           0.383886           10.44606
     49       0.00000           0.445878           12.13296
     50       0.00000           0.477734           12.99982
     51       0.00000           0.490087           13.33594
     52       0.00000           0.555755           15.12287
     53       0.00000           0.595365           16.20072

  Highest occupied state (VBM) at    -10.29657534 eV
  | Occupation number:      2.00000000

  Lowest unoccupied state (CBM) at    -4.21296925 eV
  | Occupation number:      0.00000000

  Overall HOMO-LUMO gap:      6.08360609 eV.
  Calculating total energy contributions from superposition of free atom densities.

  Total energy components:
  | Sum of eigenvalues            :        -188.85394584 Ha       -5138.97733460 eV
  | XC energy correction          :         -41.79868413 Ha       -1137.40006550 eV
  | XC potential correction       :          53.73393074 Ha        1462.17465002 eV
  | Free-atom electrostatic energy:        -146.83914740 Ha       -3995.69649966 eV
  | Hartree energy correction     :           0.00000000 Ha           0.00000000 eV
  | vdW energy correction         :           0.00000000 Ha           0.00000000 eV
  | Entropy correction            :           0.00000000 Ha           0.00000000 eV
  | ---------------------------
  | Total energy                  :        -323.75784664 Ha       -8809.89924974 eV
  | Total energy, T -> 0          :        -323.75784664 Ha       -8809.89924974 eV  <-- do not rely on this value for anything but (periodic) metals
  | Electronic free energy        :        -323.75784664 Ha       -8809.89924974 eV

  Derived energy quantities:
  | Kinetic energy                :         320.51744685 Ha        8721.72348523 eV
  | Electrostatic energy          :        -602.47660936 Ha      -16394.22266947 eV
  | Energy correction for multipole
  | error in Hartree potential    :           0.00000000 Ha           0.00000000 eV
  | Sum of eigenvalues per atom                           :        -395.30594882 eV
  | Total energy (T->0) per atom                          :        -677.68455767 eV  <-- do not rely on this value for anything but (periodic) metals
  | Electronic free energy per atom                       :        -677.68455767 eV
  Initialize hartree_potential_storage
  Max. number of atoms included in rho_multipole:           13

  End scf initialization - timings             :  max(cpu_time)    wall_clock(cpu1)
  | Time for scf. initialization               :        1.150 s           1.152 s
  | Boundary condition initialization          :        0.000 s           0.000 s
  | Integration                                :        0.709 s           0.710 s
  | Solution of K.-S. eqns.                    :        0.004 s           0.004 s
  | Grid partitioning                          :        0.110 s           0.111 s
  | Preloading free-atom quantities on grid    :        0.002 s           0.003 s
  | Free-atom superposition energy             :        0.084 s           0.084 s
  | Total energy evaluation                    :        0.000 s           0.000 s

  Partial memory accounting:
  | Current value for overall tracked memory usage on task 0  :           0.165 MB
  | Peak value for overall tracked memory usage on task 0     :           0.678 MB after allocating wave
  | Largest tracked array allocation on task 0 so far         :           0.132 MB  when allocating H_times_psi
  Note:  These values currently only include a subset of arrays which are explicitly tracked.
  The "true" memory usage will be greater.
------------------------------------------------------------

------------------------------------------------------------
          Begin self-consistency iteration #    1

  Date     :  20200710, Time     :  145812.731
------------------------------------------------------------
  Evaluating new KS density.
  Integration grid: deviation in total charge (<rho> - N_e) =   1.421085E-14
  Pulay mixing of updated and previous charge densities.

  Evaluating partitioned Hartree potential by multipole expansion.
  | Analytical far-field extrapolation by fixed multipoles:
  | Hartree multipole sum: apparent total charge =  -0.242950E-04
  Summing up the Hartree potential.
  Time summed over all CPUs for potential: real work        0.281 s, elapsed        0.281 s
  | RMS charge density error from multipole expansion :   0.590442E-02

  Integrating Hamiltonian matrix: batch-based integration.
  Time summed over all CPUs for integration: real work        0.493 s, elapsed        0.493 s

  Updating Kohn-Sham eigenvalues and eigenvectors using ELSI and the ELPA eigensolver.
  Finished Cholesky decomposition
  | Time :     0.000 s
  Finished transformation to standard eigenproblem
  | Time :     0.000 s
  Starting LAPACK eigensolver
  Finished solving standard eigenproblem
  | Time :     0.002 s
  Finished back-transformation of eigenvectors
  | Time :     0.000 s

  Obtaining occupation numbers and chemical potential using ELSI.
  | Chemical potential (Fermi level):    -7.81477518eV
  Writing Kohn-Sham eigenvalues.

  State    Occupation    Eigenvalue [Ha]    Eigenvalue [eV]
      1       2.00000         -18.906104         -514.46126
      2       2.00000         -18.833467         -512.48471
      3       2.00000         -14.105896         -383.84097
      4       2.00000         -10.115892         -275.26743
      5       2.00000         -10.066889         -273.93400
      6       2.00000         -10.032696         -273.00354
      7       2.00000          -1.134898          -30.88215
      8       2.00000          -1.036665          -28.20909
      9       2.00000          -0.928901          -25.27669
     10       2.00000          -0.798338          -21.72388
     11       2.00000          -0.701486          -19.08840
     12       2.00000          -0.637052          -17.33508
     13       2.00000          -0.591099          -16.08463
     14       2.00000          -0.561435          -15.27741
     15       2.00000          -0.519347          -14.13215
     16       2.00000          -0.504391          -13.72519
     17       2.00000          -0.491475          -13.37371
     18       2.00000          -0.480524          -13.07573
     19       2.00000          -0.449715          -12.23737
     20       2.00000          -0.435529          -11.85136
     21       2.00000          -0.410357          -11.16639
     22       2.00000          -0.368480          -10.02685
     23       2.00000          -0.356157           -9.69153
     24       2.00000          -0.307628           -8.37100
     25       0.00000          -0.118453           -3.22326
     26       0.00000          -0.062623           -1.70406
     27       0.00000           0.001403            0.03818
     28       0.00000           0.011689            0.31806
     29       0.00000           0.041253            1.12255
     30       0.00000           0.054219            1.47537
     31       0.00000           0.060854            1.65593
     32       0.00000           0.066371            1.80605
     33       0.00000           0.083667            2.27671
     34       0.00000           0.098175            2.67148
     35       0.00000           0.124644            3.39173
     36       0.00000           0.163045            4.43668
     37       0.00000           0.196603            5.34984
     38       0.00000           0.234313            6.37599
     39       0.00000           0.246274            6.70145
     40       0.00000           0.261436            7.11404
     41       0.00000           0.270195            7.35238
     42       0.00000           0.299784            8.15752
     43       0.00000           0.316417            8.61014
     44       0.00000           0.329843            8.97548
     45       0.00000           0.346433            9.42692
     46       0.00000           0.391194           10.64492
     47       0.00000           0.407659           11.09295
     48       0.00000           0.422209           11.48888
     49       0.00000           0.483503           13.15680
     50       0.00000           0.512208           13.93788
     51       0.00000           0.524759           14.27941
     52       0.00000           0.582888           15.86120
     53       0.00000           0.628497           17.10226

  Highest occupied state (VBM) at     -8.37099602 eV
  | Occupation number:      2.00000000

  Lowest unoccupied state (CBM) at    -3.22325705 eV
  | Occupation number:      0.00000000

  Overall HOMO-LUMO gap:      5.14773897 eV.

  Total energy components:
  | Sum of eigenvalues            :        -185.54884620 Ha       -5049.04099758 eV
  | XC energy correction          :         -42.12448362 Ha       -1146.26552074 eV
  | XC potential correction       :          54.15758164 Ha        1473.70277751 eV
  | Free-atom electrostatic energy:        -146.83914740 Ha       -3995.69649966 eV
  | Hartree energy correction     :          -3.22152758 Ha         -87.66222572 eV
  | vdW energy correction         :           0.00000000 Ha           0.00000000 eV
  | Entropy correction            :           0.00000000 Ha           0.00000000 eV
  | ---------------------------
  | Total energy                  :        -323.57642318 Ha       -8804.96246619 eV
  | Total energy, T -> 0          :        -323.57642318 Ha       -8804.96246619 eV  <-- do not rely on this value for anything but (periodic) metals
  | Electronic free energy        :        -323.57642318 Ha       -8804.96246619 eV

  Derived energy quantities:
  | Kinetic energy                :         322.29744459 Ha        8770.15968824 eV
  | Electrostatic energy          :        -603.74938415 Ha      -16428.85663369 eV
  | Energy correction for multipole
  | error in Hartree potential    :           0.01167995 Ha           0.31782762 eV
  | Sum of eigenvalues per atom                           :        -388.38776904 eV
  | Total energy (T->0) per atom                          :        -677.30480509 eV  <-- do not rely on this value for anything but (periodic) metals
  | Electronic free energy per atom                       :        -677.30480509 eV

  Self-consistency convergence accuracy:
  | Change of charge density      :  0.5817E+00
  | Change of sum of eigenvalues  :  0.8994E+02 eV
  | Change of total energy        :  0.4937E+01 eV

  End self-consistency iteration #     1       :  max(cpu_time)    wall_clock(cpu1)
  | Time for this iteration                    :        1.183 s           1.185 s
  | Charge density update                      :        0.393 s           0.394 s
  | Density mixing                             :        0.005 s           0.005 s
  | Hartree multipole update                   :        0.009 s           0.009 s
  | Hartree multipole summation                :        0.281 s           0.281 s
  | Integration                                :        0.493 s           0.493 s
  | Solution of K.-S. eqns.                    :        0.002 s           0.003 s
  | Total energy evaluation                    :        0.000 s           0.000 s

  Partial memory accounting:
  | Current value for overall tracked memory usage on task 0  :           0.165 MB
  | Peak value for overall tracked memory usage on task 0     :           0.695 MB after allocating gradient_basis_wave
  | Largest tracked array allocation on task 0 so far         :           0.397 MB  when allocating gradient_basis_wave
  Note:  These values currently only include a subset of arrays which are explicitly tracked.
  The "true" memory usage will be greater.
------------------------------------------------------------

------------------------------------------------------------
          Begin self-consistency iteration #    2

  Date     :  20200710, Time     :  145813.917
------------------------------------------------------------
  Evaluating new KS density.
  Integration grid: deviation in total charge (<rho> - N_e) =   2.131628E-14
  Pulay mixing of updated and previous charge densities.

  Evaluating partitioned Hartree potential by multipole expansion.
  | Analytical far-field extrapolation by fixed multipoles:
  | Hartree multipole sum: apparent total charge =  -0.159904E-03
  Summing up the Hartree potential.
  Time summed over all CPUs for potential: real work        0.280 s, elapsed        0.280 s
  | RMS charge density error from multipole expansion :   0.139504E-01

  Integrating Hamiltonian matrix: batch-based integration.
  Time summed over all CPUs for integration: real work        0.493 s, elapsed        0.493 s

  Updating Kohn-Sham eigenvalues and eigenvectors using ELSI and the ELPA eigensolver.
  Finished Cholesky decomposition
  | Time :     0.000 s
  Finished transformation to standard eigenproblem
  | Time :     0.000 s
  Starting LAPACK eigensolver
  Finished solving standard eigenproblem
  | Time :     0.002 s
  Finished back-transformation of eigenvectors
  | Time :     0.000 s

  Obtaining occupation numbers and chemical potential using ELSI.
  | Chemical potential (Fermi level):    -2.54783665eV
  Highest occupied state (VBM) at     -6.49755182 eV
  | Occupation number:      2.00000000

  Lowest unoccupied state (CBM) at    -1.95316058 eV
  | Occupation number:      0.00000000

  Overall HOMO-LUMO gap:      4.54439124 eV.

  Checking to see if s.c.f. parameters should be adjusted.

  Total energy components:
  | Sum of eigenvalues            :        -182.09541607 Ha       -4955.06838249 eV
  | XC energy correction          :         -42.47697468 Ha       -1155.85729045 eV
  | XC potential correction       :          54.61433789 Ha        1486.13174748 eV
  | Free-atom electrostatic energy:        -146.83914740 Ha       -3995.69649966 eV
  | Hartree energy correction     :          -6.70157558 Ha        -182.35914981 eV
  | vdW energy correction         :           0.00000000 Ha           0.00000000 eV
  | Entropy correction            :           0.00000000 Ha           0.00000000 eV
  | ---------------------------
  | Total energy                  :        -323.49877585 Ha       -8802.84957494 eV
  | Total energy, T -> 0          :        -323.49877585 Ha       -8802.84957494 eV  <-- do not rely on this value for anything but (periodic) metals
  | Electronic free energy        :        -323.49877585 Ha       -8802.84957494 eV

  Derived energy quantities:
  | Kinetic energy                :         323.59759183 Ha        8805.53849464 eV
  | Electrostatic energy          :        -604.61939300 Ha      -16452.53077912 eV
  | Energy correction for multipole
  | error in Hartree potential    :           0.02556788 Ha           0.69573750 eV
  | Sum of eigenvalues per atom                           :        -381.15910635 eV
  | Total energy (T->0) per atom                          :        -677.14227500 eV  <-- do not rely on this value for anything but (periodic) metals
  | Electronic free energy per atom                       :        -677.14227500 eV

  Self-consistency convergence accuracy:
  | Change of charge density      :  0.3638E+00
  | Change of sum of eigenvalues  :  0.9397E+02 eV
  | Change of total energy        :  0.2113E+01 eV

  End self-consistency iteration #     2       :  max(cpu_time)    wall_clock(cpu1)
  | Time for this iteration                    :        1.176 s           1.177 s
  | Charge density update                      :        0.385 s           0.385 s
  | Density mixing                             :        0.007 s           0.007 s
  | Hartree multipole update                   :        0.009 s           0.009 s
  | Hartree multipole summation                :        0.281 s           0.281 s
  | Integration                                :        0.493 s           0.493 s
  | Solution of K.-S. eqns.                    :        0.002 s           0.002 s
  | Total energy evaluation                    :        0.000 s           0.000 s

  Partial memory accounting:
  | Current value for overall tracked memory usage on task 0  :           0.166 MB
  | Peak value for overall tracked memory usage on task 0     :           0.695 MB after allocating gradient_basis_wave
  | Largest tracked array allocation on task 0 so far         :           0.397 MB  when allocating gradient_basis_wave
  Note:  These values currently only include a subset of arrays which are explicitly tracked.
  The "true" memory usage will be greater.
------------------------------------------------------------

------------------------------------------------------------
          Begin self-consistency iteration #    3

  Date     :  20200710, Time     :  145815.095
------------------------------------------------------------
  Evaluating new KS density.
  Integration grid: deviation in total charge (<rho> - N_e) =   3.552714E-14
  Pulay mixing of updated and previous charge densities.

  Evaluating partitioned Hartree potential by multipole expansion.
  | Analytical far-field extrapolation by fixed multipoles:
  | Hartree multipole sum: apparent total charge =  -0.258306E-03
  Summing up the Hartree potential.
  Time summed over all CPUs for potential: real work        0.280 s, elapsed        0.280 s
  | RMS charge density error from multipole expansion :   0.220480E-01

  Integrating Hamiltonian matrix: batch-based integration.
  Time summed over all CPUs for integration: real work        0.493 s, elapsed        0.493 s

  Updating Kohn-Sham eigenvalues and eigenvectors using ELSI and the ELPA eigensolver.
  Finished Cholesky decomposition
  | Time :     0.000 s
  Finished transformation to standard eigenproblem
  | Time :     0.000 s
  Starting LAPACK eigensolver
  Finished solving standard eigenproblem
  | Time :     0.002 s
  Finished back-transformation of eigenvectors
  | Time :     0.000 s

  Obtaining occupation numbers and chemical potential using ELSI.
  | Chemical potential (Fermi level):    -1.90903671eV
  Highest occupied state (VBM) at     -5.84574478 eV
  | Occupation number:      2.00000000

  Lowest unoccupied state (CBM) at    -1.21598077 eV
  | Occupation number:      0.00000000

  Overall HOMO-LUMO gap:      4.62976401 eV.

  Total energy components:
  | Sum of eigenvalues            :        -180.74113705 Ha       -4918.21657527 eV
  | XC energy correction          :         -42.63402503 Ha       -1160.13084789 eV
  | XC potential correction       :          54.81462215 Ha        1491.58175963 eV
  | Free-atom electrostatic energy:        -146.83914740 Ha       -3995.69649966 eV
  | Hartree energy correction     :          -8.08622821 Ha        -220.03746501 eV
  | vdW energy correction         :           0.00000000 Ha           0.00000000 eV
  | Entropy correction            :           0.00000000 Ha           0.00000000 eV
  | ---------------------------
  | Total energy                  :        -323.48591554 Ha       -8802.49962820 eV
  | Total energy, T -> 0          :        -323.48591554 Ha       -8802.49962820 eV  <-- do not rely on this value for anything but (periodic) metals
  | Electronic free energy        :        -323.48591554 Ha       -8802.49962820 eV

  Derived energy quantities:
  | Kinetic energy                :         323.24206221 Ha        8795.86404132 eV
  | Electrostatic energy          :        -604.09395272 Ha      -16438.23282164 eV
  | Energy correction for multipole
  | error in Hartree potential    :           0.03635398 Ha           0.98924209 eV
  | Sum of eigenvalues per atom                           :        -378.32435194 eV
  | Total energy (T->0) per atom                          :        -677.11535602 eV  <-- do not rely on this value for anything but (periodic) metals
  | Electronic free energy per atom                       :        -677.11535602 eV

  Self-consistency convergence accuracy:
  | Change of charge density      :  0.2056E+00
  | Change of sum of eigenvalues  :  0.3685E+02 eV
  | Change of total energy        :  0.3499E+00 eV

  End self-consistency iteration #     3       :  max(cpu_time)    wall_clock(cpu1)
  | Time for this iteration                    :        1.178 s           1.180 s
  | Charge density update                      :        0.385 s           0.386 s
  | Density mixing                             :        0.008 s           0.008 s
  | Hartree multipole update                   :        0.009 s           0.009 s
  | Hartree multipole summation                :        0.281 s           0.281 s
  | Integration                                :        0.493 s           0.493 s
  | Solution of K.-S. eqns.                    :        0.002 s           0.002 s
  | Total energy evaluation                    :        0.000 s           0.001 s

  Partial memory accounting:
  | Current value for overall tracked memory usage on task 0  :           0.166 MB
  | Peak value for overall tracked memory usage on task 0     :           0.695 MB after allocating gradient_basis_wave
  | Largest tracked array allocation on task 0 so far         :           0.397 MB  when allocating gradient_basis_wave
  Note:  These values currently only include a subset of arrays which are explicitly tracked.
  The "true" memory usage will be greater.
------------------------------------------------------------

------------------------------------------------------------
          Begin self-consistency iteration #    4

  Date     :  20200710, Time     :  145816.275
------------------------------------------------------------
  Evaluating new KS density.
  Integration grid: deviation in total charge (<rho> - N_e) =  -4.263256E-14
  Pulay mixing of updated and previous charge densities.

  Evaluating partitioned Hartree potential by multipole expansion.
  | Analytical far-field extrapolation by fixed multipoles:
  | Hartree multipole sum: apparent total charge =  -0.291143E-03
  Summing up the Hartree potential.
  Time summed over all CPUs for potential: real work        0.281 s, elapsed        0.281 s
  | RMS charge density error from multipole expansion :   0.255945E-01

  Integrating Hamiltonian matrix: batch-based integration.
  Time summed over all CPUs for integration: real work        0.493 s, elapsed        0.493 s

  Updating Kohn-Sham eigenvalues and eigenvectors using ELSI and the ELPA eigensolver.
  Finished Cholesky decomposition
  | Time :     0.000 s
  Finished transformation to standard eigenproblem
  | Time :     0.000 s
  Starting LAPACK eigensolver
  Finished solving standard eigenproblem
  | Time :     0.002 s
  Finished back-transformation of eigenvectors
  | Time :     0.000 s

  Obtaining occupation numbers and chemical potential using ELSI.
  | Chemical potential (Fermi level):    -1.82824480eV
  Highest occupied state (VBM) at     -5.61826392 eV
  | Occupation number:      2.00000000

  Lowest unoccupied state (CBM) at    -1.13430885 eV
  | Occupation number:      0.00000000

  Overall HOMO-LUMO gap:      4.48395508 eV.

  Total energy components:
  | Sum of eigenvalues            :        -180.63794983 Ha       -4915.40870800 eV
  | XC energy correction          :         -42.67063481 Ha       -1161.12705072 eV
  | XC potential correction       :          54.86044289 Ha        1492.82860527 eV
  | Free-atom electrostatic energy:        -146.83914740 Ha       -3995.69649966 eV
  | Hartree energy correction     :          -8.19753379 Ha        -223.06624398 eV
  | vdW energy correction         :           0.00000000 Ha           0.00000000 eV
  | Entropy correction            :           0.00000000 Ha           0.00000000 eV
  | ---------------------------
  | Total energy                  :        -323.48482295 Ha       -8802.46989708 eV
  | Total energy, T -> 0          :        -323.48482295 Ha       -8802.46989708 eV  <-- do not rely on this value for anything but (periodic) metals
  | Electronic free energy        :        -323.48482295 Ha       -8802.46989708 eV

  Derived energy quantities:
  | Kinetic energy                :         322.83325404 Ha        8784.73980495 eV
  | Electrostatic energy          :        -603.64744217 Ha      -16426.08265132 eV
  | Energy correction for multipole
  | error in Hartree potential    :           0.04059365 Ha           1.10460941 eV
  | Sum of eigenvalues per atom                           :        -378.10836215 eV
  | Total energy (T->0) per atom                          :        -677.11306901 eV  <-- do not rely on this value for anything but (periodic) metals
  | Electronic free energy per atom                       :        -677.11306901 eV

  Self-consistency convergence accuracy:
  | Change of charge density      :  0.6841E-01
  | Change of sum of eigenvalues  :  0.2808E+01 eV
  | Change of total energy        :  0.2973E-01 eV

  End self-consistency iteration #     4       :  max(cpu_time)    wall_clock(cpu1)
  | Time for this iteration                    :        1.179 s           1.181 s
  | Charge density update                      :        0.385 s           0.386 s
  | Density mixing                             :        0.009 s           0.009 s
  | Hartree multipole update                   :        0.009 s           0.009 s
  | Hartree multipole summation                :        0.281 s           0.281 s
  | Integration                                :        0.493 s           0.493 s
  | Solution of K.-S. eqns.                    :        0.002 s           0.002 s
  | Total energy evaluation                    :        0.000 s           0.001 s

  Partial memory accounting:
  | Current value for overall tracked memory usage on task 0  :           0.166 MB
  | Peak value for overall tracked memory usage on task 0     :           0.696 MB after allocating gradient_basis_wave
  | Largest tracked array allocation on task 0 so far         :           0.397 MB  when allocating gradient_basis_wave
  Note:  These values currently only include a subset of arrays which are explicitly tracked.
  The "true" memory usage will be greater.
------------------------------------------------------------

------------------------------------------------------------
          Begin self-consistency iteration #    5

  Date     :  20200710, Time     :  145817.456
------------------------------------------------------------
  Evaluating new KS density.
  Integration grid: deviation in total charge (<rho> - N_e) =   7.105427E-15
  Pulay mixing of updated and previous charge densities.

  Evaluating partitioned Hartree potential by multipole expansion.
  | Analytical far-field extrapolation by fixed multipoles:
  | Hartree multipole sum: apparent total charge =  -0.285618E-03
  Summing up the Hartree potential.
  Time summed over all CPUs for potential: real work        0.281 s, elapsed        0.281 s
  | RMS charge density error from multipole expansion :   0.253374E-01

  Integrating Hamiltonian matrix: batch-based integration.
  Time summed over all CPUs for integration: real work        0.493 s, elapsed        0.493 s

  Updating Kohn-Sham eigenvalues and eigenvectors using ELSI and the ELPA eigensolver.
  Finished Cholesky decomposition
  | Time :     0.000 s
  Finished transformation to standard eigenproblem
  | Time :     0.000 s
  Starting LAPACK eigensolver
  Finished solving standard eigenproblem
  | Time :     0.002 s
  Finished back-transformation of eigenvectors
  | Time :     0.000 s

  Obtaining occupation numbers and chemical potential using ELSI.
  | Chemical potential (Fermi level):    -1.87824880eV
  Highest occupied state (VBM) at     -5.73020987 eV
  | Occupation number:      2.00000000

  Lowest unoccupied state (CBM) at    -1.21380088 eV
  | Occupation number:      0.00000000

  Overall HOMO-LUMO gap:      4.51640899 eV.

  Total energy components:
  | Sum of eigenvalues            :        -180.80085499 Ha       -4919.84158318 eV
  | XC energy correction          :         -42.64962238 Ha       -1160.55527334 eV
  | XC potential correction       :          54.83319703 Ha        1492.08720780 eV
  | Free-atom electrostatic energy:        -146.83914740 Ha       -3995.69649966 eV
  | Hartree energy correction     :          -8.02809507 Ha        -218.45558170 eV
  | vdW energy correction         :           0.00000000 Ha           0.00000000 eV
  | Entropy correction            :           0.00000000 Ha           0.00000000 eV
  | ---------------------------
  | Total energy                  :        -323.48452281 Ha       -8802.46173008 eV
  | Total energy, T -> 0          :        -323.48452281 Ha       -8802.46173008 eV  <-- do not rely on this value for anything but (periodic) metals
  | Electronic free energy        :        -323.48452281 Ha       -8802.46173008 eV

  Derived energy quantities:
  | Kinetic energy                :         322.74230163 Ha        8782.26486410 eV
  | Electrostatic energy          :        -603.57720207 Ha      -16424.17132083 eV
  | Energy correction for multipole
  | error in Hartree potential    :           0.04000393 Ha           1.08856233 eV
  | Sum of eigenvalues per atom                           :        -378.44935255 eV
  | Total energy (T->0) per atom                          :        -677.11244078 eV  <-- do not rely on this value for anything but (periodic) metals
  | Electronic free energy per atom                       :        -677.11244078 eV

  Self-consistency convergence accuracy:
  | Change of charge density      :  0.2200E-01
  | Change of sum of eigenvalues  : -0.4433E+01 eV
  | Change of total energy        :  0.8167E-02 eV

  End self-consistency iteration #     5       :  max(cpu_time)    wall_clock(cpu1)
  | Time for this iteration                    :        1.181 s           1.183 s
  | Charge density update                      :        0.385 s           0.386 s
  | Density mixing                             :        0.011 s           0.011 s
  | Hartree multipole update                   :        0.009 s           0.008 s
  | Hartree multipole summation                :        0.281 s           0.282 s
  | Integration                                :        0.493 s           0.493 s
  | Solution of K.-S. eqns.                    :        0.002 s           0.002 s
  | Total energy evaluation                    :        0.000 s           0.000 s

  Partial memory accounting:
  | Current value for overall tracked memory usage on task 0  :           0.166 MB
  | Peak value for overall tracked memory usage on task 0     :           0.696 MB after allocating gradient_basis_wave
  | Largest tracked array allocation on task 0 so far         :           0.397 MB  when allocating gradient_basis_wave
  Note:  These values currently only include a subset of arrays which are explicitly tracked.
  The "true" memory usage will be greater.
------------------------------------------------------------

------------------------------------------------------------
          Begin self-consistency iteration #    6

  Date     :  20200710, Time     :  145818.639
------------------------------------------------------------
  Evaluating new KS density.
  Integration grid: deviation in total charge (<rho> - N_e) =   8.526513E-14
  Pulay mixing of updated and previous charge densities.

  Evaluating partitioned Hartree potential by multipole expansion.
  | Analytical far-field extrapolation by fixed multipoles:
  | Hartree multipole sum: apparent total charge =  -0.287993E-03
  Summing up the Hartree potential.
  Time summed over all CPUs for potential: real work        0.281 s, elapsed        0.281 s
  | RMS charge density error from multipole expansion :   0.256949E-01

  Integrating Hamiltonian matrix: batch-based integration.
  Time summed over all CPUs for integration: real work        0.494 s, elapsed        0.494 s

  Updating Kohn-Sham eigenvalues and eigenvectors using ELSI and the ELPA eigensolver.
  Finished Cholesky decomposition
  | Time :     0.000 s
  Finished transformation to standard eigenproblem
  | Time :     0.000 s
  Starting LAPACK eigensolver
  Finished solving standard eigenproblem
  | Time :     0.002 s
  Finished back-transformation of eigenvectors
  | Time :     0.000 s

  Obtaining occupation numbers and chemical potential using ELSI.
  | Chemical potential (Fermi level):    -1.89006942eV
  Highest occupied state (VBM) at     -5.72766085 eV
  | Occupation number:      2.00000000

  Lowest unoccupied state (CBM) at    -1.24517912 eV
  | Occupation number:      0.00000000

  Overall HOMO-LUMO gap:      4.48248173 eV.

  Total energy components:
  | Sum of eigenvalues            :        -180.83429154 Ha       -4920.75143792 eV
  | XC energy correction          :         -42.64547343 Ha       -1160.44237464 eV
  | XC potential correction       :          54.82777504 Ha        1491.93966782 eV
  | Free-atom electrostatic energy:        -146.83914740 Ha       -3995.69649966 eV
  | Hartree energy correction     :          -7.99332335 Ha        -217.50939519 eV
  | vdW energy correction         :           0.00000000 Ha           0.00000000 eV
  | Entropy correction            :           0.00000000 Ha           0.00000000 eV
  | ---------------------------
  | Total energy                  :        -323.48446069 Ha       -8802.46003960 eV
  | Total energy, T -> 0          :        -323.48446069 Ha       -8802.46003960 eV  <-- do not rely on this value for anything but (periodic) metals
  | Electronic free energy        :        -323.48446069 Ha       -8802.46003960 eV

  Derived energy quantities:
  | Kinetic energy                :         322.65517510 Ha        8779.89403060 eV
  | Electrostatic energy          :        -603.49416236 Ha      -16421.91169556 eV
  | Energy correction for multipole
  | error in Hartree potential    :           0.04025841 Ha           1.09548700 eV
  | Sum of eigenvalues per atom                           :        -378.51934138 eV
  | Total energy (T->0) per atom                          :        -677.11231074 eV  <-- do not rely on this value for anything but (periodic) metals
  | Electronic free energy per atom                       :        -677.11231074 eV

  Self-consistency convergence accuracy:
  | Change of charge density      :  0.1074E-01
  | Change of sum of eigenvalues  : -0.9099E+00 eV
  | Change of total energy        :  0.1690E-02 eV

  End self-consistency iteration #     6       :  max(cpu_time)    wall_clock(cpu1)
  | Time for this iteration                    :        1.183 s           1.185 s
  | Charge density update                      :        0.385 s           0.386 s
  | Density mixing                             :        0.012 s           0.011 s
  | Hartree multipole update                   :        0.009 s           0.009 s
  | Hartree multipole summation                :        0.281 s           0.281 s
  | Integration                                :        0.494 s           0.494 s
  | Solution of K.-S. eqns.                    :        0.002 s           0.002 s
  | Total energy evaluation                    :        0.000 s           0.000 s

  Partial memory accounting:
  | Current value for overall tracked memory usage on task 0  :           0.166 MB
  | Peak value for overall tracked memory usage on task 0     :           0.696 MB after allocating gradient_basis_wave
  | Largest tracked array allocation on task 0 so far         :           0.397 MB  when allocating gradient_basis_wave
  Note:  These values currently only include a subset of arrays which are explicitly tracked.
  The "true" memory usage will be greater.
------------------------------------------------------------

------------------------------------------------------------
          Begin self-consistency iteration #    7

  Date     :  20200710, Time     :  145819.824
------------------------------------------------------------
  Evaluating new KS density.
  Integration grid: deviation in total charge (<rho> - N_e) =   4.263256E-14
  Pulay mixing of updated and previous charge densities.

  Evaluating partitioned Hartree potential by multipole expansion.
  | Analytical far-field extrapolation by fixed multipoles:
  | Hartree multipole sum: apparent total charge =  -0.289119E-03
  Summing up the Hartree potential.
  Time summed over all CPUs for potential: real work        0.281 s, elapsed        0.281 s
  | RMS charge density error from multipole expansion :   0.258254E-01

  Integrating Hamiltonian matrix: batch-based integration.
  Time summed over all CPUs for integration: real work        0.494 s, elapsed        0.494 s

  Updating Kohn-Sham eigenvalues and eigenvectors using ELSI and the ELPA eigensolver.
  Finished Cholesky decomposition
  | Time :     0.000 s
  Finished transformation to standard eigenproblem
  | Time :     0.000 s
  Starting LAPACK eigensolver
  Finished solving standard eigenproblem
  | Time :     0.002 s
  Finished back-transformation of eigenvectors
  | Time :     0.000 s

[...]
  |   Hirshfeld dipole moment :      0.05979805
  |   Hirshfeld second moments:      0.00158204      -0.02950784      -0.01912218
  |                                 -0.02950784      -0.02400433       0.01022977
  |                                 -0.01912218       0.01022977      -0.01686946
  ----------------------------------------------------------------------
  | Atom    12: O
  |   Hirshfeld charge        :     -0.15364572
  |   Free atom volume        :     23.61338643
  |   Hirshfeld volume        :     21.08032883
  |   Hirshfeld dipole vector :      0.01091740       0.04218675      -0.00096684
  |   Hirshfeld dipole moment :      0.04358722
  |   Hirshfeld second moments:      0.08830206      -0.01917871       0.02004011
  |                                 -0.01917871       0.02805480       0.00666287
  |                                  0.02004011       0.00666287       0.04328093
  ----------------------------------------------------------------------
  | Atom    13: H
  |   Hirshfeld charge        :      0.15627711
  |   Free atom volume        :      9.95071624
  |   Hirshfeld volume        :      6.49666052
  |   Hirshfeld dipole vector :     -0.09222112       0.04868587      -0.03130404
  |   Hirshfeld dipole moment :      0.10888063
  |   Hirshfeld second moments:      0.11686673      -0.00508030       0.00389151
  |                                 -0.00508030       0.08886893       0.01953658
  |                                  0.00389151       0.01953658       0.10437568
  ----------------------------------------------------------------------


  Total energy components:
  | Sum of eigenvalues            :        -180.82702692 Ha       -4920.55375747 eV
  | XC energy correction          :         -42.64313140 Ha       -1160.37864494 eV
  | XC potential correction       :          54.82481757 Ha        1491.85919110 eV
  | Free-atom electrostatic energy:        -146.83914740 Ha       -3995.69649966 eV
  | Hartree energy correction     :          -7.99994992 Ha        -217.68971321 eV
  | vdW energy correction         :          -0.00322006 Ha          -0.08762219 eV
  | Entropy correction            :           0.00000000 Ha           0.00000000 eV
  | ---------------------------
  | Total energy                  :        -323.48765813 Ha       -8802.54704638 eV
  | Total energy, T -> 0          :        -323.48765813 Ha       -8802.54704638 eV  <-- do not rely on this value for anything but (periodic) metals
  | Electronic free energy        :        -323.48765813 Ha       -8802.54704638 eV

  Derived energy quantities:
  | Kinetic energy                :         322.61878751 Ha        8778.90387394 eV
  | Electrostatic energy          :        -603.46009418 Ha      -16420.98465318 eV
  | Energy correction for multipole
  | error in Hartree potential    :           0.04034599 Ha           1.09787031 eV
  | Sum of eigenvalues per atom                           :        -378.50413519 eV
  | Total energy (T->0) per atom                          :        -677.11900357 eV  <-- do not rely on this value for anything but (periodic) metals
  | Electronic free energy per atom                       :        -677.11900357 eV

  atomic forces [eV/Ang]:
  -----------------------
  atom #    1
   Hellmann-Feynman              : -0.141310E-01 -0.281135E+00  0.128499E+01
   Ionic forces                  :  0.000000E+00  0.000000E+00  0.000000E+00
   Multipole                     : -0.771325E-01  0.143308E+00 -0.190032E+00
   Pulay + GGA                   : -0.536941E+00  0.354549E+00 -0.153668E+01
   Van der Waals                 :  0.291919E-02  0.169453E-02 -0.123237E-02
   ----------------------------------------------------------------
   Total forces(   1)            : -0.625286E+00  0.218416E+00 -0.442956E+00
  atom #    2
   Hellmann-Feynman              :  0.244571E+00 -0.689164E-02 -0.146377E+00
   Ionic forces                  :  0.000000E+00  0.000000E+00  0.000000E+00
   Multipole                     :  0.186859E+00  0.262799E-01 -0.851813E-02
   Pulay + GGA                   : -0.158077E+00  0.299931E-01  0.356216E-01
   Van der Waals                 :  0.245697E-02 -0.389385E-02 -0.622763E-02
   ----------------------------------------------------------------
   Total forces(   2)            :  0.275810E+00  0.454875E-01 -0.125501E+00
  atom #    3
   Hellmann-Feynman              :  0.350381E+01  0.105393E+02 -0.377758E+01
   Ionic forces                  :  0.000000E+00  0.000000E+00  0.000000E+00
   Multipole                     : -0.211924E+00  0.214897E+00 -0.812984E+00
   Pulay + GGA                   : -0.248472E+01 -0.101807E+02  0.524726E+01
   Van der Waals                 :  0.422714E-02 -0.459502E-02 -0.893418E-02
   ----------------------------------------------------------------
   Total forces(   3)            :  0.811389E+00  0.568920E+00  0.647769E+00
  atom #    4
   Hellmann-Feynman              : -0.233967E+00 -0.238364E+00 -0.103491E+00
   Ionic forces                  :  0.000000E+00  0.000000E+00  0.000000E+00
   Multipole                     :  0.169801E-02 -0.774105E-01 -0.930340E-01
   Pulay + GGA                   : -0.559812E-01  0.216360E+00  0.676957E-01
   Van der Waals                 :  0.417411E-02  0.852964E-02 -0.108453E-01
   ----------------------------------------------------------------
   Total forces(   4)            : -0.284076E+00 -0.908848E-01 -0.139674E+00
  atom #    5
   Hellmann-Feynman              : -0.354984E+00 -0.593043E-01 -0.242384E+00
   Ionic forces                  :  0.000000E+00  0.000000E+00  0.000000E+00
   Multipole                     : -0.779062E-01 -0.230486E-01 -0.604159E-01
   Pulay + GGA                   :  0.247164E+00  0.184055E+00 -0.116165E+00
   Van der Waals                 : -0.117619E-02  0.187142E-02 -0.118282E-01
   ----------------------------------------------------------------
   Total forces(   5)            : -0.186902E+00  0.103574E+00 -0.430793E+00
  atom #    6
   Hellmann-Feynman              :  0.438387E+00 -0.274353E+00  0.214736E+00
   Ionic forces                  :  0.000000E+00  0.000000E+00  0.000000E+00
   Multipole                     : -0.187068E+00  0.658743E+00  0.253413E+00
   Pulay + GGA                   :  0.119074E-01 -0.720026E+00 -0.504856E+00
   Van der Waals                 : -0.777707E-03  0.631078E-02 -0.153842E-02
   ----------------------------------------------------------------
   Total forces(   6)            :  0.262448E+00 -0.329325E+00 -0.382462E-01
  atom #    7
   Hellmann-Feynman              : -0.266013E+00 -0.466124E-01 -0.330266E-01
   Ionic forces                  :  0.000000E+00  0.000000E+00  0.000000E+00
   Multipole                     : -0.116158E+00  0.515248E-01  0.316458E-01
   Pulay + GGA                   :  0.110360E+00  0.469330E-01  0.332319E-01
   Van der Waals                 : -0.249342E-02  0.285284E-02  0.775230E-02
   ----------------------------------------------------------------
   Total forces(   7)            : -0.274304E+00  0.546982E-01  0.396033E-01
  atom #    8
   Hellmann-Feynman              :  0.204257E-01 -0.990006E-01  0.131755E+00
   Ionic forces                  :  0.000000E+00  0.000000E+00  0.000000E+00
   Multipole                     :  0.171028E-01  0.707662E-01  0.127390E+00
   Pulay + GGA                   : -0.433611E-01 -0.402019E-01 -0.969555E-01
   Van der Waals                 : -0.315064E-02  0.110737E-01  0.122682E-02
   ----------------------------------------------------------------
   Total forces(   8)            : -0.898328E-02 -0.573625E-01  0.163416E+00
  atom #    9
   Hellmann-Feynman              :  0.623746E-01  0.304378E-01 -0.168915E+00
   Ionic forces                  :  0.000000E+00  0.000000E+00  0.000000E+00
   Multipole                     :  0.221318E-01  0.133680E+00 -0.948294E-02
   Pulay + GGA                   : -0.455751E-01 -0.108839E+00  0.225931E-01
   Van der Waals                 : -0.329458E-02  0.177388E-02  0.325925E-02
   ----------------------------------------------------------------
   Total forces(   9)            :  0.356367E-01  0.570529E-01 -0.152545E+00
  atom #   10
   Hellmann-Feynman              :  0.289141E+01  0.480717E+01  0.243921E+01
   Ionic forces                  :  0.000000E+00  0.000000E+00  0.000000E+00
   Multipole                     :  0.559997E-01 -0.451167E-01  0.179071E+00
   Pulay + GGA                   : -0.115918E+01 -0.334860E+01 -0.307116E+00
   Van der Waals                 :  0.400378E-02 -0.159705E-01  0.951480E-02
   ----------------------------------------------------------------
   Total forces(  10)            :  0.179224E+01  0.139748E+01  0.232068E+01
  atom #   11
   Hellmann-Feynman              :  0.390165E+01 -0.237359E+01  0.141639E+02
   Ionic forces                  :  0.000000E+00  0.000000E+00  0.000000E+00
   Multipole                     :  0.179356E-01 -0.470463E+00  0.817696E+00
   Pulay + GGA                   : -0.286031E+01  0.323660E+01 -0.140594E+02
   Van der Waals                 : -0.512477E-04 -0.121440E-01  0.567271E-02
   ----------------------------------------------------------------
   Total forces(  11)            :  0.105922E+01  0.380405E+00  0.927886E+00
  atom #   12
   Hellmann-Feynman              : -0.138880E+01 -0.149090E+02 -0.218837E+01
   Ionic forces                  :  0.000000E+00  0.000000E+00  0.000000E+00
   Multipole                     : -0.883278E+00 -0.160198E+01 -0.110070E-02
   Pulay + GGA                   : -0.422662E-01  0.147673E+02  0.634837E+00
   Van der Waals                 : -0.156864E-02 -0.140594E-02  0.118550E-01
   ----------------------------------------------------------------
   Total forces(  12)            : -0.231592E+01 -0.174511E+01 -0.154278E+01
  atom #   13
   Hellmann-Feynman              : -0.745118E+00 -0.341545E+00 -0.141029E+01
   Ionic forces                  :  0.000000E+00  0.000000E+00  0.000000E+00
   Multipole                     : -0.775908E-01  0.535804E-01 -0.171944E-01
   Pulay + GGA                   :  0.281966E+00 -0.318796E+00  0.194202E+00
   Van der Waals                 : -0.526877E-02  0.390255E-02  0.132532E-02
   ----------------------------------------------------------------
   Total forces(  13)            : -0.546012E+00 -0.602858E+00 -0.123195E+01

  Timings for VdW correction (Tkatchenko-Scheffler 2009 or later):
  | CPU time:        0.090 s, Wall clock time:        0.091 s.
  Removing unitary transformations (pure translations, rotations) from forces on atoms.
  Atomic forces before filtering:
  | Net force on center of mass :  -0.473104E-02  0.492760E-03 -0.509918E-02 eV/A
  | Net torque on center of mass:   0.132292E-02  0.112458E-02 -0.940177E-02 eV
  Atomic forces after filtering:
  | Net force on center of mass :   0.178406E-15 -0.892031E-16 -0.178406E-15 eV/A
  | Net torque on center of mass:  -0.519247E-15  0.566451E-15 -0.113290E-14 eV

  Energy and forces in a compact form:
  | Total energy uncorrected      :         -0.880254704638014E+04 eV
  | Total energy corrected        :         -0.880254704638014E+04 eV  <-- do not rely on this value for anything but (periodic) metals
  | Electronic free energy        :         -0.880254704638014E+04 eV
  Total atomic forces (unitary forces cleaned) [eV/Ang]:
  |   1         -0.624956447865357E+00          0.218542263771615E+00         -0.442561182884080E+00
  |   2          0.276139011890717E+00          0.459721454105536E-01         -0.125094475708144E+00
  |   3          0.811732932876411E+00          0.568857426943047E+00          0.648159200801322E+00
  |   4         -0.283476843602452E+00         -0.908082184012015E-01         -0.139261997243740E+00
  |   5         -0.186513383221992E+00          0.103180053301132E+00         -0.430410181304268E+00
  |   6          0.262355841014374E+00         -0.329344631872698E+00         -0.378847656234792E-01
  |   7         -0.274405312618770E+00          0.543205943251966E-01          0.399524059926607E-01
  |   8         -0.909079234532875E-02         -0.572405257331699E-01          0.163781115236383E+00
  |   9          0.352549289143652E-01          0.571402563716185E-01         -0.152200281957766E+00
  |  10          0.179298503957695E+01          0.139749458107156E+01          0.232109823109734E+01
  |  11          0.106004638515032E+01          0.380540481782092E+00          0.928315291305529E+00
  |  12         -0.231488795895527E+01         -0.174534494973371E+01         -0.154235038186360E+01
  |  13         -0.545183400813965E+00         -0.603309477236035E+00         -0.123154297784816E+01

  ------------------------------------ 
  Start decomposition of the XC Energy 
  ------------------------------------ 
  X and C from original XC functional choice 
  Hartree-Fock Energy :          0.000000000 Ha              0.000000000 eV
  X Energy            :        -41.041208759 Ha          -1116.788111880 eV
  C Energy            :         -1.601922646 Ha            -43.590533057 eV
  Total XC Energy     :        -42.643131405 Ha          -1160.378644937 eV
  ------------------------------------ 
  LDA X and C from self-consistent density 
  X Energy LDA        :        -37.261372147 Ha          -1013.933524493 eV
  C Energy LDA        :         -3.139050679 Ha            -85.417914986 eV
  ------------------------------------ 
  End decomposition of the XC Energy 
  ------------------------------------ 

------------------------------------------------------------

------------------------------------------------------------------------------
  Final output of selected total energy values:

  The following output summarizes some interesting total energy values
  at the end of a run (AFTER all relaxation, molecular dynamics, etc.).

  | Total energy of the DFT / Hartree-Fock s.c.f. calculation      :          -8802.547046380 eV
  | Final zero-broadening corrected energy (caution - metals only) :          -8802.547046380 eV
  | For reference only, the value of 1 Hartree used in FHI-aims is :             27.211384500 eV

  Before relying on these values, please be sure to understand exactly which
  total energy value is referred to by a given number. Different objects may
  all carry the same name 'total energy'. Definitions:

  Total energy of the DFT / Hartree-Fock s.c.f. calculation:
  | Note that this energy does not include ANY quantities calculated after the
  | s.c.f. cycle, in particular not ANY RPA, MP2, etc. many-body perturbation terms.

  Final zero-broadening corrected energy:
  | For metallic systems only, a broadening of the occupation numbers at the Fermi
  | level can be extrapolated back to zero broadening by an electron-gas inspired
  | formula. For all systems that are not real metals, this value can be
  | meaningless and should be avoided.

------------------------------------------------------------------------------
  Methods described in the following list of references were used in this FHI-aims run.
  If you publish the results, please make sure to cite these reference if they apply.
  FHI-aims is an academic code, and for our developers (often, Ph.D. students
  and postdocs), scientific credit in the community is essential.
  Thank you for helping us!

  For any use of FHI-aims, please cite:

    Volker Blum, Ralf Gehrke, Felix Hanke, Paula Havu, Ville Havu,
    Xinguo Ren, Karsten Reuter, and Matthias Scheffler
    'Ab initio molecular simulations with numeric atom-centered orbitals'
    Computer Physics Communications 180, 2175-2196 (2009)
    http://dx.doi.org/10.1016/j.cpc.2009.06.022


  The scalable eigensolver library ELPA was used in your run.
  ELPA is essential especially for large systems on hundreds or thousands of CPUs.
  For ELPA, please cite:

    Andreas Marek, Volker Blum, Rainer Johanni, Ville Havu, Bruno Lang,
    Thomas Auckenthaler, Alexander Heinecke, Hans-Joachim Bungartz, and Hermann Lederer,
    'The ELPA Library - Scalable Parallel Eigenvalue Solutions
    for Electronic Structure Theory and Computational Science'
    The Journal of Physics: Condensed Matter 26, 213201 (2014).
    http://dx.doi.org/10.1088/0953-8984/26/21/213201


  The ELSI infrastructure was used in your run to solve the Kohn-Sham electronic structure.
  Please check out http://elsi-interchange.org to learn more.
  If scalability is important for your project, please acknowledge ELSI by citing:

    V. W-z. Yu, F. Corsetti, A. Garcia, W. P. Huhn, M. Jacquelin, W. Jia,
    B. Lange, L. Lin, J. Lu, W. Mi, A. Seifitokaldani, A. Vazquez-Mayagoitia,
    C. Yang, H. Yang, and V. Blum
    'ELSI: A unified software interface for Kohn-Sham electronic structure solvers'
    Computer Physics Communications 222, 267-285 (2018).
    http://dx.doi.org/10.1016/j.cpc.2017.09.007


  For the real-space grid partitioning and parallelization used in this calculation, please cite:

    Ville Havu, Volker Blum, Paula Havu, and Matthias Scheffler,
    'Efficient O(N) integration for all-electron electronic structure calculation'
    'using numerically tabulated basis functions'
    Journal of Computational Physics 228, 8367-8379 (2009).
    http://dx.doi.org/10.1016/j.jcp.2009.08.008

  Of course, there are many other important community references, e.g., those cited in the
  above references. Our list is limited to references that describe implementations in the
  FHI-aims code. The reason is purely practical (length of this list) - please credit others as well.

------------------------------------------------------------
          Leaving FHI-aims.
          Date     :  20200710, Time     :  145834.086

          Computational steps:
          | Number of self-consistency cycles          :           16
          | Number of SCF (re)initializations          :            1

          Detailed time accounting                     :  max(cpu_time)    wall_clock(cpu1)
          | Total time                                 :       22.617 s          22.672 s
          | Preparation time                           :        0.143 s           0.150 s
          | Boundary condition initalization           :        0.000 s           0.000 s
          | Grid partitioning                          :        0.110 s           0.111 s
          | Preloading free-atom quantities on grid    :        0.002 s           0.003 s
          | Free-atom superposition energy             :        0.084 s           0.084 s
          | Total time for integrations                :        8.611 s           8.615 s
          | Total time for solution of K.-S. equations :        0.038 s           0.041 s
          | Total time for density & force components  :        7.119 s           7.136 s
          | Total time for mixing                      :        0.211 s           0.213 s
          | Total time for Hartree multipole update    :        0.139 s           0.141 s
          | Total time for Hartree multipole sum       :        5.760 s           5.769 s
          | Total time for total energy evaluation     :        0.003 s           0.004 s
          | Total time for vdW correction              :        0.090 s           0.091 s

          Partial memory accounting:
          | Residual value for overall tracked memory usage across tasks :           0.000 MB (should be 0.000 MB)
          | Peak values for overall tracked memory usage (after allocating hessian_basis_wave):
          |   Minimum:        1.622 MB (on task 1)
          |   Maximum:        1.622 MB (on task 1)
          |   Average:        1.622 MB
          | Largest tracked array allocation (hessian_basis_wave):
          |   Minimum:        0.794 MB (on task 1)
          |   Maximum:        0.794 MB (on task 1)
          |   Average:        0.794 MB
          Note:  These values currently only include a subset of arrays which are explicitly tracked.
          The "true" memory usage will be greater.

          Have a nice day.
------------------------------------------------------------
