  MPI-parallelism will be employed.
------------------------------------------------------------
          Invoking FHI-aims ...
          Version 171221_1
          Compiled on 2019/09/09 at 14:39:39 on host puhti-login2.bullx.

          When using FHI-aims, please cite the following reference:

          Volker Blum, Ralf Gehrke, Felix Hanke, Paula Havu,
          Ville Havu, Xinguo Ren, Karsten Reuter, and Matthias Scheffler,
          'Ab Initio Molecular Simulations with Numeric Atom-Centered Orbitals',
          Computer Physics Communications 180, 2175-2196 (2009)

          For any questions about FHI-aims, please visit the aimsclub website
          with its forums and wiki. Contributions to both the forums and the
          wiki are warmly encouraged - they are for you, and everyone is welcome there.

------------------------------------------------------------



  Date     :  20200805, Time     :  182558.563
  Time zero on CPU 1             :   0.106500000000000E-01  s.
  Internal wall clock time zero  :           365883958.563  s.

  FHI-aims created a unique identifier for this run for later identification
  aims_uuid : 0046D393-DCFA-41D2-ABB7-78EC5964E038

  Using        1 parallel tasks.
  Task        0 on host r13c46.bullx reporting.

  Performing system and environment tests:
  | Environment variable OMP_NUM_THREADS correctly set to 1.
  | Stacksize not measured: no C compiler
  | Checking for scalapack...
  | Testing pdtran()...
  | All pdtran() tests passed.

  Obtaining array dimensions for all initial allocations:
  
  -----------------------------------------------------------------------
  Parsing control.in (first pass over file, find array dimensions only).
  The contents of control.in will be repeated verbatim below
  unless switched off by setting 'verbatim_writeout .false.' .
  in the first line of control.in .
  -----------------------------------------------------------------------
  
  #########################################################################################
  #
  #  Volker Blum, FHI 2009 : Test run input file control.in for simple H2O
  #
  #########################################################################################
  #
  #  Physical model
  #
    xc                 pbe
    vdw_correction_hirshfeld
    spin               none
    relativistic       none
    charge             0.
  #
  #  SCF convergence
  #
    occupation_type    gaussian 0.01
    mixer              pulay
      n_max_pulay        10
      charge_mix_param   0.2
    sc_accuracy_rho    1E-5
    sc_accuracy_eev    1E-3
    sc_accuracy_etot   1E-6
    sc_accuracy_forces 1E-4
    sc_iter_limit      100
  #
  #  Relaxation
  #
  #  relax_geometry   bfgs 1.e-3
  #
  ################################################################################
  #
  #  FHI-aims code project
  #  VB, Fritz-Haber Institut, 2009
  #
  #  Suggested "light" defaults for H atom (to be pasted into control.in file)
  #  Be sure to double-check any results obtained with these settings for post-processing,
  #  e.g., with the "tight" defaults and larger basis sets.
  #
  ################################################################################
    species        H
  #     global species definitions
      nucleus             1
      mass                1.00794
  #
      l_hartree           4
  #
      cut_pot             3.5  1.5  1.0
      basis_dep_cutoff    1e-4
  #
      radial_base         24 5.0
      radial_multiplier   1
      angular_grids       specified
        division   0.2421   50
        division   0.3822  110
        division   0.4799  194
        division   0.5341  302
  #      division   0.5626  434
  #      division   0.5922  590
  #      division   0.6542  770
  #      division   0.6868 1202
  #      outer_grid  770
        outer_grid  302
  ################################################################################
  #
  #  Definition of "minimal" basis
  #
  ################################################################################
  #     valence basis states
      valence      1  s   1.
  #     ion occupancy
      ion_occ      1  s   0.5
  ################################################################################
  #
  #  Suggested additional basis functions. For production calculations,
  #  uncomment them one after another (the most important basis functions are
  #  listed first).
  #
  #  Basis constructed for dimers: 0.5 A, 0.7 A, 1.0 A, 1.5 A, 2.5 A
  #
  ################################################################################
  #  "First tier" - improvements: -1014.90 meV to -62.69 meV
       hydro 2 s 2.1
       hydro 2 p 3.5
  #  "Second tier" - improvements: -12.89 meV to -1.83 meV
  #     hydro 1 s 0.85
  #     hydro 2 p 3.7
  #     hydro 2 s 1.2
  #     hydro 3 d 7
  #  "Third tier" - improvements: -0.25 meV to -0.12 meV
  #     hydro 4 f 11.2
  #     hydro 3 p 4.8
  #     hydro 4 d 9
  #     hydro 3 s 3.2
  ################################################################################
  #
  #  FHI-aims code project
  #  VB, Fritz-Haber Institut, 2009
  #
  #  Suggested "light" defaults for C atom (to be pasted into control.in file)
  #  Be sure to double-check any results obtained with these settings for post-processing,
  #  e.g., with the "tight" defaults and larger basis sets.
  #
  ################################################################################
    species        C
  #     global species definitions
      nucleus             6
      mass                12.0107
  #
      l_hartree           4
  #
      cut_pot             3.5  1.5  1.0
      basis_dep_cutoff    1e-4
  #
      radial_base         34 5.0
      radial_multiplier   1
      angular_grids specified
        division   0.3326   50
        division   0.5710  110
        division   0.7727  194
        division   0.8772  302
  #      division   0.9334  434
  #      division   0.9625  590
  #      division   0.9924  770
  #      division   1.0230  974
  #      division   1.4589 1202
  #     outer_grid  974
       outer_grid 302
  ################################################################################
  #
  #  Definition of "minimal" basis
  #
  ################################################################################
  #     valence basis states
      valence      2  s   2.
      valence      2  p   2.
  #     ion occupancy
      ion_occ      2  s   1.
      ion_occ      2  p   1.
  ################################################################################
  #
  #  Suggested additional basis functions. For production calculations,
  #  uncomment them one after another (the most important basis functions are
  #  listed first).
  #
  #  Constructed for dimers: 1.0 A, 1.25 A, 1.5 A, 2.0 A, 3.0 A
  #
  ################################################################################
  #  "First tier" - improvements: -1214.57 meV to -155.61 meV
       hydro 2 p 1.7
       hydro 3 d 6
       hydro 2 s 4.9
  #  "Second tier" - improvements: -67.75 meV to -5.23 meV
  #     hydro 4 f 9.8
  #     hydro 3 p 5.2
  #     hydro 3 s 4.3
  #     hydro 5 g 14.4
  #     hydro 3 d 6.2
  #  "Third tier" - improvements: -2.43 meV to -0.60 meV
  #     hydro 2 p 5.6
  #     hydro 2 s 1.4
  #     hydro 3 d 4.9
  #     hydro 4 f 11.2
  #  "Fourth tier" - improvements: -0.39 meV to -0.18 meV
  #     hydro 2 p 2.1
  #     hydro 5 g 16.4
  #     hydro 4 d 13.2
  #     hydro 3 s 13.6
  #     hydro 4 f 17.6
  #  Further basis functions - improvements: -0.08 meV and below
  #     hydro 3 s 2
  #     hydro 3 p 6
  #     hydro 4 d 20
  ################################################################################
  #
  #  FHI-aims code project
  #  VB, Fritz-Haber Institut, 2009
  #
  #  Suggested "light" defaults for N atom (to be pasted into control.in file)
  #  Be sure to double-check any results obtained with these settings for post-processing,
  #  e.g., with the "tight" defaults and larger basis sets.
  #
  ################################################################################
    species        N
  #     global species definitions
      nucleus             7
      mass                14.0067
  #
      l_hartree           4
  #
      cut_pot             3.5  1.5  1.0
      basis_dep_cutoff    1e-4
  #
      radial_base         35 5.0
      radial_multiplier   1
      angular_grids       specified
        division   0.2599   50
        division   0.4601  110
        division   0.5885  194
        division   0.6503  302
  #      division   0.6939  434
  #      division   0.7396  590
  #      division   0.7632  770
  #      division   0.8122  974
  #      division   1.1604 1202
  #      outer_grid  974
        outer_grid  302
  ################################################################################
  #
  #  Definition of "minimal" basis
  #
  ################################################################################
  #     valence basis states
      valence      2  s   2.
      valence      2  p   3.
  #     ion occupancy
      ion_occ      2  s   1.
      ion_occ      2  p   2.
  ################################################################################
  #
  #  Suggested additional basis functions. For production calculations,
  #  uncomment them one after another (the most important basis functions are
  #  listed first).
  #
  #  Constructed for dimers: 1.0 A, 1.1 A, 1.5 A, 2.0 A, 3.0 A
  #
  ################################################################################
  #  "First tier" - improvements: -1193.42 meV to -220.60 meV
       hydro 2 p 1.8
       hydro 3 d 6.8
       hydro 3 s 5.8
  #  "Second tier" - improvements: -80.21 meV to -6.86 meV
  #     hydro 4 f 10.8
  #     hydro 3 p 5.8
  #     hydro 1 s 0.8
  #     hydro 5 g 16
  #     hydro 3 d 4.9
  #  "Third tier" - improvements: -4.29 meV to -0.53 meV
  #     hydro 3 s 16
  #     ionic 2 p auto
  #     hydro 3 d 6.6
  #     hydro 4 f 11.6
  #  "Fourth tier" - improvements: -0.75 meV to -0.25 meV
  #     hydro 2 p 4.5
  #     hydro 2 s 2.4
  #     hydro 5 g 14.4
  #     hydro 4 d 14.4
  #     hydro 4 f 16.8
  # Further basis functions - -0.21 meV and below
  #     hydro 3 p 14.8
  #     hydro 3 s 4.4
  #     hydro 3 d 19.6
  #     hydro 5 g 12.8
  ################################################################################
  #
  #  FHI-aims code project
  #  VB, Fritz-Haber Institut, 2009
  #
  #  Suggested "light" defaults for O atom (to be pasted into control.in file)
  #  Be sure to double-check any results obtained with these settings for post-processing,
  #  e.g., with the "tight" defaults and larger basis sets.
  #
  ################################################################################
    species        O
  #     global species definitions
      nucleus             8
      mass                15.9994
  #
      l_hartree           4
  #
      cut_pot             3.5  1.5  1.0
      basis_dep_cutoff    1e-4
  #
      radial_base         36 5.0
      radial_multiplier   1
       angular_grids specified
        division   0.2659   50
        division   0.4451  110
        division   0.6052  194
        division   0.7543  302
  #      division   0.8014  434
  #      division   0.8507  590
  #      division   0.8762  770
  #      division   0.9023  974
  #      division   1.2339 1202
  #      outer_grid 974
        outer_grid 302
  ################################################################################
  #
  #  Definition of "minimal" basis
  #
  ################################################################################
  #     valence basis states
      valence      2  s   2.
      valence      2  p   4.
  #     ion occupancy
      ion_occ      2  s   1.
      ion_occ      2  p   3.
  ################################################################################
  #
  #  Suggested additional basis functions. For production calculations,
  #  uncomment them one after another (the most important basis functions are
  #  listed first).
  #
  #  Constructed for dimers: 1.0 A, 1.208 A, 1.5 A, 2.0 A, 3.0 A
  #
  ################################################################################
  #  "First tier" - improvements: -699.05 meV to -159.38 meV
       hydro 2 p 1.8
       hydro 3 d 7.6
       hydro 3 s 6.4
  #  "Second tier" - improvements: -49.91 meV to -5.39 meV
  #     hydro 4 f 11.6
  #     hydro 3 p 6.2
  #     hydro 3 d 5.6
  #     hydro 5 g 17.6
  #     hydro 1 s 0.75
  #  "Third tier" - improvements: -2.83 meV to -0.50 meV
  #     ionic 2 p auto
  #     hydro 4 f 10.8
  #     hydro 4 d 4.7
  #     hydro 2 s 6.8
  #  "Fourth tier" - improvements: -0.40 meV to -0.12 meV
  #     hydro 3 p 5
  #     hydro 3 s 3.3
  #     hydro 5 g 15.6
  #     hydro 4 f 17.6
  #     hydro 4 d 14
  # Further basis functions - -0.08 meV and below
  #     hydro 3 s 2.1
  #     hydro 4 d 11.6
  #     hydro 3 p 16
  #     hydro 2 s 17.2
  
  -----------------------------------------------------------------------
  Completed first pass over input file control.in .
  -----------------------------------------------------------------------
  
  
  -----------------------------------------------------------------------
  Parsing geometry.in (first pass over file, find array dimensions only).
  The contents of geometry.in will be repeated verbatim below
  unless switched off by setting 'verbatim_writeout .false.' .
  in the first line of geometry.in .
  -----------------------------------------------------------------------
  
  atom  0.00000 0.00000 0.00000 C
  atom  1.09300 0.00000 0.00000 H
  atom  -0.47961 0.00000 -1.41207 N
  atom  -0.96640 -0.87888 -1.59217 H
  atom  -1.11305 0.78611 -1.54212 H
  atom  -0.49584 1.26211 0.72868 C
  atom  -1.58789 1.28919 0.74431 H
  atom  -0.13407 1.27425 1.75947 H
  atom  -0.13407 2.16087 0.22380 H
  atom  -0.39425 -1.28861 0.74398 C
  atom  -0.10189 -1.56493 1.88303 O
  atom  -1.10210 -2.13717 0.06896 O
  atom  -1.75388 -1.51702 -0.29924 H
  
  -----------------------------------------------------------------------
  Completed first pass over input file geometry.in .
  -----------------------------------------------------------------------
  

  Basic array size parameters:
  | Number of species                 :        4
  | Number of atoms                   :       13
  | Max. basis fn. angular momentum   :        2
  | Max. atomic/ionic basis occupied n:        2
  | Max. number of basis fn. types    :        2
  | Max. radial fns per species/type  :        3
  | Max. logarithmic grid size        :     1301
  | Max. radial integration grid size :       36
  | Max. angular integration grid size:      302
  | Max. angular grid division number :        8
  | Radial grid for Hartree potential :     1301
  | Number of spin channels           :        1

------------------------------------------------------------
          Reading file control.in.
------------------------------------------------------------
  XC: Using PBE gradient-corrected functionals.
  Spin treatment: No spin polarisation.
  Non-relativistic treatment of kinetic energy.
  Charge =   0.000000E+00: Neutral system requested explicitly.
  Occupation type: Gaussian broadening, width =   0.100000E-01 eV.
  Using pulay charge density mixing.
  Pulay mixing - number of memorized iterations:   10
  Charge density mixing - mixing parameter:     0.2000
  Convergence accuracy of self-consistent charge density:  0.1000E-04
  Convergence accuracy of sum of eigenvalues:  0.1000E-02
  Convergence accuracy of total energy:  0.1000E-05
  Convergence accuracy of forces:  0.1000E-03
  Maximum number of s.-c. iterations  :   100
 
  Reading configuration options for species H                   .
  | Found nuclear charge :   1.0000
  | Found atomic mass :    1.00794000000000      amu
  | Found l_max for Hartree potential  :   4
  | Found cutoff potl. onset [A], width [A], scale factor :    3.50000    1.50000    1.00000
  | Threshold for basis-dependent cutoff potential is   0.100000E-03
  | Found data for basic radial integration grid :    24 points, outermost radius =    5.000 A
  | Found multiplier for basic radial grid :   1
  | Found angular grid specification: user-specified.
  | Specified grid contains     5 separate shells.
  | Check grid settings after all constraints further below.
  | Found free-atom valence shell :  1 s   1.000
  | No ionic wave fns used. Skipping ion_occ.
  | Found hydrogenic basis function :  2 s   2.100
  | Found hydrogenic basis function :  2 p   3.500
  Species H                   : Missing cutoff potential type.
  Defaulting to exp(1/x)/(1-x)^2 type cutoff potential.
  Species H : No 'logarithmic' tag. Using default grid for free atom:
  | Default logarithmic grid data [bohr] : 0.1000E-03 0.1000E+03 0.1012E+01
  Species H : On-site basis accuracy parameter (for Gram-Schmidt orthonormalisation) not specified.
  Using default value basis_acc =  0.1000000E-03.
  Species H                   : Using default innermost maximum threshold i_radial=  2 for radial functions.
  Species H                   : Default cutoff onset for free atom density etc. : 0.35000000E+01 AA.
  Species H                   : Basic radial grid will be enhanced according to radial_multiplier =   1, to contain    24 grid points.
 
  Reading configuration options for species C                   .
  | Found nuclear charge :   6.0000
  | Found atomic mass :    12.0107000000000      amu
  | Found l_max for Hartree potential  :   4
  | Found cutoff potl. onset [A], width [A], scale factor :    3.50000    1.50000    1.00000
  | Threshold for basis-dependent cutoff potential is   0.100000E-03
  | Found data for basic radial integration grid :    34 points, outermost radius =    5.000 A
  | Found multiplier for basic radial grid :   1
  | Found angular grid specification: user-specified.
  | Specified grid contains     5 separate shells.
  | Check grid settings after all constraints further below.
  | Found free-atom valence shell :  2 s   2.000
  | Found free-atom valence shell :  2 p   2.000
  | No ionic wave fns used. Skipping ion_occ.
  | No ionic wave fns used. Skipping ion_occ.
  | Found hydrogenic basis function :  2 p   1.700
  | Found hydrogenic basis function :  3 d   6.000
  | Found hydrogenic basis function :  2 s   4.900
  Species C                   : Missing cutoff potential type.
  Defaulting to exp(1/x)/(1-x)^2 type cutoff potential.
  Species C : No 'logarithmic' tag. Using default grid for free atom:
  | Default logarithmic grid data [bohr] : 0.1000E-03 0.1000E+03 0.1012E+01
  Species C : On-site basis accuracy parameter (for Gram-Schmidt orthonormalisation) not specified.
  Using default value basis_acc =  0.1000000E-03.
  Species C                   : Using default innermost maximum threshold i_radial=  2 for radial functions.
  Species C                   : Default cutoff onset for free atom density etc. : 0.35000000E+01 AA.
  Species C                   : Basic radial grid will be enhanced according to radial_multiplier =   1, to contain    34 grid points.
 
  Reading configuration options for species N                   .
  | Found nuclear charge :   7.0000
  | Found atomic mass :    14.0067000000000      amu
  | Found l_max for Hartree potential  :   4
  | Found cutoff potl. onset [A], width [A], scale factor :    3.50000    1.50000    1.00000
  | Threshold for basis-dependent cutoff potential is   0.100000E-03
  | Found data for basic radial integration grid :    35 points, outermost radius =    5.000 A
  | Found multiplier for basic radial grid :   1
  | Found angular grid specification: user-specified.
  | Specified grid contains     5 separate shells.
  | Check grid settings after all constraints further below.
  | Found free-atom valence shell :  2 s   2.000
  | Found free-atom valence shell :  2 p   3.000
  | No ionic wave fns used. Skipping ion_occ.
  | No ionic wave fns used. Skipping ion_occ.
  | Found hydrogenic basis function :  2 p   1.800
  | Found hydrogenic basis function :  3 d   6.800
  | Found hydrogenic basis function :  3 s   5.800
  Species N                   : Missing cutoff potential type.
  Defaulting to exp(1/x)/(1-x)^2 type cutoff potential.
  Species N : No 'logarithmic' tag. Using default grid for free atom:
  | Default logarithmic grid data [bohr] : 0.1000E-03 0.1000E+03 0.1012E+01
  Species N : On-site basis accuracy parameter (for Gram-Schmidt orthonormalisation) not specified.
  Using default value basis_acc =  0.1000000E-03.
  Species N                   : Using default innermost maximum threshold i_radial=  2 for radial functions.
  Species N                   : Default cutoff onset for free atom density etc. : 0.35000000E+01 AA.
  Species N                   : Basic radial grid will be enhanced according to radial_multiplier =   1, to contain    35 grid points.
 
  Reading configuration options for species O                   .
  | Found nuclear charge :   8.0000
  | Found atomic mass :    15.9994000000000      amu
  | Found l_max for Hartree potential  :   4
  | Found cutoff potl. onset [A], width [A], scale factor :    3.50000    1.50000    1.00000
  | Threshold for basis-dependent cutoff potential is   0.100000E-03
  | Found data for basic radial integration grid :    36 points, outermost radius =    5.000 A
  | Found multiplier for basic radial grid :   1
  | Found angular grid specification: user-specified.
  | Specified grid contains     5 separate shells.
  | Check grid settings after all constraints further below.
  | Found free-atom valence shell :  2 s   2.000
  | Found free-atom valence shell :  2 p   4.000
  | No ionic wave fns used. Skipping ion_occ.
  | No ionic wave fns used. Skipping ion_occ.
  | Found hydrogenic basis function :  2 p   1.800
  | Found hydrogenic basis function :  3 d   7.600
  | Found hydrogenic basis function :  3 s   6.400
  Species O                   : Missing cutoff potential type.
  Defaulting to exp(1/x)/(1-x)^2 type cutoff potential.
  Species O : No 'logarithmic' tag. Using default grid for free atom:
  | Default logarithmic grid data [bohr] : 0.1000E-03 0.1000E+03 0.1012E+01
  Species O : On-site basis accuracy parameter (for Gram-Schmidt orthonormalisation) not specified.
  Using default value basis_acc =  0.1000000E-03.
  Species O                   : Using default innermost maximum threshold i_radial=  2 for radial functions.
  Species O                   : Default cutoff onset for free atom density etc. : 0.35000000E+01 AA.
  Species O                   : Basic radial grid will be enhanced according to radial_multiplier =   1, to contain    36 grid points.
 
  Finished reading input file 'control.in'. Consistency checks are next.
 
  MPI_IN_PLACE appears to work with this MPI implementation.
  | Keeping use_mpi_in_place .true. (see manual).
  Target number of points in a grid batch is not set. Defaulting to  100
  Method for grid partitioning is not set. Defaulting to parallel hash+maxmin partitioning.
  Batch size limit is not set. Defaulting to    200
  By default, will store active basis functions for each batch.
  If in need of memory, prune_basis_once .false. can be used to disable this option.
  communication_type for Hartree potential was not specified.
  Defaulting to calc_hartree .
  Pulay mixer: Number of initial linear mixing iterations not set.
  Defaulting to    0 iterations.
  Work space size for distributed Hartree potential not set.
  Defaulting to   0.200000E+03 MB.
  Algorithm-dependent basis array size parameters:
  | n_max_pulay                         :       10
  Presetting      1001 iterations before the initial mixing cycle
  is restarted anyway using the sc_init_iter criterion / keyword.
  Presetting a factor      1.000 between actual scf density residual
  and density convergence criterion sc_accuracy_rho below which sc_init_iter
  takes no effect.
  Geometry relaxation not requested: no relaxation will be performed.
  Handling of forces: Unphysical translation and rotation will be removed from forces.
  No accuracy limit for integral partition fn. given. Defaulting to  0.1000E-14.
  No threshold value for u(r) in integrations given. Defaulting to  0.1000E-05.
  No accuracy for occupation numbers given. Defaulting to  0.1000E-12.
  No threshold value for occupation numbers given. Defaulting to  0.0000E+00.
  No accuracy for fermi level given. Defaulting to  0.1000E-19.
  Maximum # of iterations to find E_F not set. Defaulting to  200.
  Preferred method for the eigenvalue solver ('KS_method') not specified in 'control.in'.
  Defaulting to serial version, 'lapack_fast'.
  Will not use alltoall communication since running on < 1024 CPUs.
  Threshold for basis singularities not set.
  Default threshold for basis singularities:  0.1000E-04
  partition_type (choice of integration weights) for integrals was not specified.
  | Using a version of the partition function of Stratmann and coworkers ('stratmann_smoother').
  | At each grid point, the set of atoms used to build the partition table is smoothly restricted to
  | only those atoms whose free-atom density would be non-zero at that grid point.
  Partitioning for Hartree potential was not defined. Using partition_type for integrals.
  | Adjusted default value of keyword multip_moments_threshold to:       0.10000000E-11
  | This value may affect high angular momentum components of the Hartree potential in periodic systems.
  No q(lm)/r^(l+1) cutoff set for long-range Hartree potential.
  | Using default value of  0.100000E-09 .
  | Verify using the multipole_threshold keyword.
  Defaulting to new monopole extrapolation.
  Density update method: automatic selection selected.
------------------------------------------------------------


------------------------------------------------------------
          Reading geometry description geometry.in.
------------------------------------------------------------
  Input structure read successfully.
  The structure contains       13 atoms,  and a total of         48.000 electrons.

  Input geometry:
  | No unit cell requested.
  | Atomic structure:
  |       Atom                x [A]            y [A]            z [A]
  |    1: Species C             0.00000000        0.00000000        0.00000000
  |    2: Species H             1.09300000        0.00000000        0.00000000
  |    3: Species N            -0.47961000        0.00000000       -1.41207000
  |    4: Species H            -0.96640000       -0.87888000       -1.59217000
  |    5: Species H            -1.11305000        0.78611000       -1.54212000
  |    6: Species C            -0.49584000        1.26211000        0.72868000
  |    7: Species H            -1.58789000        1.28919000        0.74431000
  |    8: Species H            -0.13407000        1.27425000        1.75947000
  |    9: Species H            -0.13407000        2.16087000        0.22380000
  |   10: Species C            -0.39425000       -1.28861000        0.74398000
  |   11: Species O            -0.10189000       -1.56493000        1.88303000
  |   12: Species O            -1.10210000       -2.13717000        0.06896000
  |   13: Species H            -1.75388000       -1.51702000       -0.29924000
  |

  | The smallest distance between any two atoms is         0.97209795 AA.
  |
  | The first atom of this pair is atom number                     12 .
  | The second atom of this pair is atom number                    13 .

  Number of empty states per atom not set in control.in - providing a guess from actual geometry.
  | Total number of empty states used during s.c.f. cycle:       29
  If you use a very high smearing, use empty_states (per atom!) in control.in to increase this value.

  Structure-dependent array size parameters: 
  | Maximum number of distinct radial functions  :       21
  | Maximum number of basis functions            :      119
  | Number of Kohn-Sham states (occupied + empty):       53
------------------------------------------------------------

------------------------------------------------------------
          Preparing all fixed parts of the calculation.
------------------------------------------------------------
  Determining machine precision:
    2.225073858507201E-308
  Setting up grids for atomic and cluster calculations.

  Creating wave function, potential, and density for free atoms.

  Species: H

  List of occupied orbitals and eigenvalues:
    n    l              occ      energy [Ha]    energy [eV]
    1    0           1.0000        -0.237589        -6.4651


  Species: C

  List of occupied orbitals and eigenvalues:
    n    l              occ      energy [Ha]    energy [eV]
    1    0           2.0000       -10.038835      -273.1706
    2    0           2.0000        -0.502696       -13.6791
    2    1           2.0000        -0.191971        -5.2238


  Species: N

  List of occupied orbitals and eigenvalues:
    n    l              occ      energy [Ha]    energy [eV]
    1    0           2.0000       -14.128000      -384.4424
    2    0           2.0000        -0.681077       -18.5330
    2    1           3.0000        -0.259788        -7.0692


  Species: O

  List of occupied orbitals and eigenvalues:
    n    l              occ      energy [Ha]    energy [eV]
    1    0           2.0000       -18.898188      -514.2459
    2    0           2.0000        -0.878505       -23.9053
    2    1           4.0000        -0.331779        -9.0282

  Creating fixed part of basis set: Ionic, confined, hydrogenic.
 
  H                    hydrogenic:
 
  List of hydrogenic basis orbitals: 
    n    l      effective z      eigenvalue [eV]  inner max. [A]     outer max. [A]     outer radius [A]   
    2    0         2.100000       -14.9728           0.193243           1.317208           4.583499
    2    1         3.500000       -41.6669           0.602369           0.602369           3.723403
 
 
  C                    hydrogenic:
 
  List of hydrogenic basis orbitals: 
    n    l      effective z      eigenvalue [eV]  inner max. [A]     outer max. [A]     outer radius [A]   
    2    1         1.700000        -9.7616           1.230570           1.230570           4.607917
    3    2         6.000000       -54.4224           0.792453           0.792453           3.883070
    2    0         4.900000       -81.6679           0.082559           0.562749           3.078220
 
 
  N                    hydrogenic:
 
  List of hydrogenic basis orbitals: 
    n    l      effective z      eigenvalue [eV]  inner max. [A]     outer max. [A]     outer radius [A]   
    2    1         1.800000       -10.9749           1.177451           1.177451           4.573712
    3    2         6.800000       -69.9026           0.704619           0.704619           3.538137
    3    0         5.800000       -50.8545           0.067388           1.191934           4.250239
 
 
  O                    hydrogenic:
 
  List of hydrogenic basis orbitals: 
    n    l      effective z      eigenvalue [eV]  inner max. [A]     outer max. [A]     outer radius [A]   
    2    1         1.800000       -10.9749           1.164242           1.164242           4.578029
    3    2         7.600000       -87.3180           0.624125           0.624125           3.251020
    3    0         6.400000       -61.9207           0.061167           1.081902           4.001998
 

  Adding cutoff potential to free-atom effective potential.
  Creating atomic-like basis functions for current effective potential.

  Species H                   :

  List of atomic basis orbitals and eigenvalues:
    n    l      energy [Ha]    energy [eV]    outer radius [A]
    1    0        -0.237589        -6.4651       4.527807


  Species C                   :

  List of atomic basis orbitals and eigenvalues:
    n    l      energy [Ha]    energy [eV]    outer radius [A]
    1    0       -10.038835      -273.1706       1.934409
    2    0        -0.502696       -13.6791       4.496620
    2    1        -0.191971        -5.2238       4.551928


  Species N                   :

  List of atomic basis orbitals and eigenvalues:
    n    l      energy [Ha]    energy [eV]    outer radius [A]
    1    0       -14.128000      -384.4424       1.637919
    2    0        -0.681077       -18.5330       4.463241
    2    1        -0.259788        -7.0692       4.518138


  Species O                   :

  List of atomic basis orbitals and eigenvalues:
    n    l      energy [Ha]    energy [eV]    outer radius [A]
    1    0       -18.898188      -514.2459       1.415765
    2    0        -0.878505       -23.9053       4.413171
    2    1        -0.331779        -9.0282       4.522403

  Assembling full basis from fixed parts.
  | Species H :   atomic orbital   1 s accepted.
  | Species H :    hydro orbital   2 s accepted.
  | Species H :    hydro orbital   2 p accepted.
  | Species C :   atomic orbital   1 s accepted.
  | Species C :    hydro orbital   2 s accepted.
  | Species C :   atomic orbital   2 s accepted.
  | Species C :   atomic orbital   2 p accepted.
  | Species C :    hydro orbital   2 p accepted.
  | Species C :    hydro orbital   3 d accepted.
  | Species N :   atomic orbital   1 s accepted.
  | Species N :    hydro orbital   3 s accepted.
  | Species N :   atomic orbital   2 s accepted.
  | Species N :   atomic orbital   2 p accepted.
  | Species N :    hydro orbital   2 p accepted.
  | Species N :    hydro orbital   3 d accepted.
  | Species O :   atomic orbital   1 s accepted.
  | Species O :    hydro orbital   3 s accepted.
  | Species O :   atomic orbital   2 s accepted.
  | Species O :   atomic orbital   2 p accepted.
  | Species O :    hydro orbital   2 p accepted.
  | Species O :    hydro orbital   3 d accepted.
 
  Basis size parameters after reduction:
  | Total number of radial functions:       21
  | Total number of basis functions :      119
 
  Per-task memory consumption for arrays in subroutine allocate_ext:
  |           5.250512MB.
  Testing on-site integration grid accuracy.
  |  Species  Function  <phi|h_atom|phi> (log., in eV)  <phi|h_atom|phi> (rad., in eV)
           1        1                 -6.4663192853                 -6.4651273558
           1        2                 13.7111246313                 13.7170609718
           1        3                 25.2673269279                 25.2674696378
           2        4               -273.1705927641               -273.1705631568
           2        5                -10.7109323383                -10.7107120029
           2        6                 17.4381822266                 17.4352413244
           2        7                 -5.2255326521                 -5.2270484734
           2        8                  8.6835629259                  8.6603288385
           2        9                 27.4952418996                 27.4953360207
           3       10               -384.4424306495               -384.4423701208
           3       11                 12.5842251816                 12.5842222903
           3       12                -15.7264628251                -15.7264433455
           3       13                 -7.0696854293                 -7.0701769954
           3       14                  8.8090390882                  8.7901077751
           3       15                 35.9586762123                 35.9588528632
           4       16               -514.2458688638               -514.2457643834
           4       17                 15.1795651126                 15.1795290741
           4       18                -21.5359799773                -21.5360846186
           4       19                 -9.0283069236                 -9.0284644067
           4       20                  8.3027758564                  8.2834874195
           4       21                 45.8339351984                 45.8338762259

  Preparing densities etc. for the partition functions (integrals / Hartree potential).

  Preparations completed.
  max(cpu_time)          :      0.143 s.
  Wall clock time (cpu1) :      0.144 s.
------------------------------------------------------------

------------------------------------------------------------
          Begin self-consistency loop: Initialization.

          Date     :  20200805, Time     :  182558.719
------------------------------------------------------------

  Initializing index lists of integration centers etc. from given atomic structure:
  | Number of centers in hartree potential         :        13
  | Number of centers in hartree multipole         :        13
  | Number of centers in electron density summation:        13
  | Number of centers in basis integrals           :        13
  | Number of centers in integrals                 :        13
  | Number of centers in hamiltonian               :        13
  Partitioning the integration grid into batches with parallel hashing+maxmin method.
  | Number of batches:      962
  | Maximal batch size:     139
  | Minimal batch size:      66
  | Average batch size:      72.397
  | Standard deviation of batch sizes:      16.754

  Integration load balanced across     1 MPI tasks.
  Work distribution over tasks is as follows:
  Task     0 has      69646 integration points.
  Initializing partition tables, free-atom densities, potentials, etc. across the integration grid (initialize_grid_storage).
  | initialize_grid_storage: Actual outermost partition radius vs. multipole_radius_free
  | (-- VB: in principle, multipole_radius_free should be larger, hence this output)
  | Species        1: Confinement radius =              4.999999999999999 AA, multipole_radius_free =              5.054417573612229 AA.
  | Species        1: outer_partition_radius set to              5.054417573612229 AA .
  | Species        2: Confinement radius =              4.999999999999999 AA, multipole_radius_free =              5.019602836301480 AA.
  | Species        2: outer_partition_radius set to              5.019602836301480 AA .
  | Species        3: Confinement radius =              4.999999999999999 AA, multipole_radius_free =              5.043624274424571 AA.
  | Species        3: outer_partition_radius set to              5.043624274424571 AA .
  | Species        4: Confinement radius =              4.999999999999999 AA, multipole_radius_free =              5.048384829883283 AA.
  | Species        4: outer_partition_radius set to              5.048384829883283 AA .
  | Original list of interatomic distances with          13 x         13 entries is created.
  | Net number of integration points:    69646
  | of which are non-zero points    :    59343
  Renormalizing the initial density to the exact electron count on the 3D integration grid.
  | Initial density: Formal number of electrons (from input files) :      48.0000000000
  | Integrated number of electrons on 3D grid     :      47.9999644326
  | Charge integration error                      :      -0.0000355674
  | Normalization factor for density and gradient :       1.0000007410
  Obtaining max. number of non-zero basis functions in each batch (get_n_compute_maxes).
  | Maximal number of non-zero basis functions:      119 in task     0
  Selecting the method for density update.
  Loop over occupied states selected for charge density update.
  Allocating        0.050 MB for KS_eigenvector
  Integrating Hamiltonian matrix: batch-based integration.
  Time summed over all CPUs for integration: real work        0.493 s, elapsed        0.493 s
  Integrating overlap matrix.
  Time summed over all CPUs for integration: real work        0.211 s, elapsed        0.211 s

  Updating Kohn-Sham eigenvalues and eigenvectors using ELSI and the ELPA eigensolver.
  Overlap matrix is nonsingular
  | Lowest eigenvalue of overlap  :  0.49E-02
  | Highest eigenvalue of overlap :  0.64E+01
  Finished singularity check of overlap matrix
  | Time :     0.002 s
  Finished Cholesky decomposition
  | Time :     0.000 s
  Finished transformation to standard eigenproblem
  | Time :     0.000 s
  Starting LAPACK eigensolver
  Finished solving standard eigenproblem
  | Time :     0.002 s
  Finished back-transformation of eigenvectors
  | Time :     0.000 s

  Obtaining occupation numbers and chemical potential using ELSI.
  | Chemical potential (Fermi level):    -9.67592164eV
  Writing Kohn-Sham eigenvalues.

  State    Occupation    Eigenvalue [Ha]    Eigenvalue [eV]
      1       2.00000         -19.008479         -517.24704
      2       2.00000         -18.977150         -516.39453
      3       2.00000         -14.246308         -387.66177
      4       2.00000         -10.166908         -276.65563
      5       2.00000         -10.141640         -275.96806
      6       2.00000         -10.132157         -275.71001
      7       2.00000          -1.183453          -32.20340
      8       2.00000          -1.101320          -29.96843
      9       2.00000          -0.992824          -27.01613
     10       2.00000          -0.859821          -23.39693
     11       2.00000          -0.756078          -20.57394
     12       2.00000          -0.681107          -18.53386
     13       2.00000          -0.643924          -17.52207
     14       2.00000          -0.603790          -16.42995
     15       2.00000          -0.586755          -15.96643
     16       2.00000          -0.558931          -15.20928
     17       2.00000          -0.547328          -14.89356
     18       2.00000          -0.538141          -14.64357
     19       2.00000          -0.521456          -14.18955
     20       2.00000          -0.494563          -13.45773
     21       2.00000          -0.469076          -12.76421
     22       2.00000          -0.430861          -11.72433
     23       2.00000          -0.411974          -11.21040
     24       2.00000          -0.381826          -10.39002
     25       0.00000          -0.155389           -4.22836
     26       0.00000          -0.071384           -1.94245
     27       0.00000          -0.029057           -0.79067
     28       0.00000          -0.023781           -0.64711
     29       0.00000           0.000729            0.01984
     30       0.00000           0.010278            0.27967
     31       0.00000           0.017931            0.48794
     32       0.00000           0.030732            0.83627
     33       0.00000           0.055098            1.49929
     34       0.00000           0.061112            1.66294
     35       0.00000           0.101827            2.77086
     36       0.00000           0.132692            3.61073
     37       0.00000           0.152405            4.14714
     38       0.00000           0.204357            5.56084
     39       0.00000           0.221455            6.02611
     40       0.00000           0.233853            6.36347
     41       0.00000           0.255120            6.94218
     42       0.00000           0.275539            7.49781
     43       0.00000           0.295881            8.05133
     44       0.00000           0.297861            8.10521
     45       0.00000           0.313777            8.53830
     46       0.00000           0.357033            9.71537
     47       0.00000           0.363626            9.89477
     48       0.00000           0.386953           10.52953
     49       0.00000           0.433086           11.78486
     50       0.00000           0.488242           13.28574
     51       0.00000           0.519511           14.13662
     52       0.00000           0.529030           14.39563
     53       0.00000           0.561772           15.28659

  Highest occupied state (VBM) at    -10.39002372 eV
  | Occupation number:      2.00000000

  Lowest unoccupied state (CBM) at    -4.22835881 eV
  | Occupation number:      0.00000000

  Overall HOMO-LUMO gap:      6.16166490 eV.
  Calculating total energy contributions from superposition of free atom densities.

  Total energy components:
  | Sum of eigenvalues            :        -188.87174289 Ha       -5139.46161689 eV
  | XC energy correction          :         -41.80767584 Ha       -1137.64474233 eV
  | XC potential correction       :          53.74629353 Ha        1462.51105879 eV
  | Free-atom electrostatic energy:        -146.81773354 Ha       -3995.11379867 eV
  | Hartree energy correction     :           0.00000000 Ha           0.00000000 eV
  | vdW energy correction         :           0.00000000 Ha           0.00000000 eV
  | Entropy correction            :           0.00000000 Ha           0.00000000 eV
  | ---------------------------
  | Total energy                  :        -323.75085873 Ha       -8809.70909910 eV
  | Total energy, T -> 0          :        -323.75085873 Ha       -8809.70909910 eV  <-- do not rely on this value for anything but (periodic) metals
  | Electronic free energy        :        -323.75085873 Ha       -8809.70909910 eV

  Derived energy quantities:
  | Kinetic energy                :         320.54298121 Ha        8722.41831035 eV
  | Electrostatic energy          :        -602.48616410 Ha      -16394.48266712 eV
  | Energy correction for multipole
  | error in Hartree potential    :           0.00000000 Ha           0.00000000 eV
  | Sum of eigenvalues per atom                           :        -395.34320130 eV
  | Total energy (T->0) per atom                          :        -677.66993070 eV  <-- do not rely on this value for anything but (periodic) metals
  | Electronic free energy per atom                       :        -677.66993070 eV
  Initialize hartree_potential_storage
  Max. number of atoms included in rho_multipole:           13

  End scf initialization - timings             :  max(cpu_time)    wall_clock(cpu1)
  | Time for scf. initialization               :        1.146 s           1.147 s
  | Boundary condition initialization          :        0.000 s           0.000 s
  | Integration                                :        0.704 s           0.704 s
  | Solution of K.-S. eqns.                    :        0.004 s           0.005 s
  | Grid partitioning                          :        0.110 s           0.110 s
  | Preloading free-atom quantities on grid    :        0.002 s           0.002 s
  | Free-atom superposition energy             :        0.084 s           0.085 s
  | Total energy evaluation                    :        0.000 s           0.000 s

  Partial memory accounting:
  | Current value for overall tracked memory usage on task 0  :           0.165 MB
  | Peak value for overall tracked memory usage on task 0     :           0.678 MB after allocating wave
  | Largest tracked array allocation on task 0 so far         :           0.132 MB  when allocating H_times_psi
  Note:  These values currently only include a subset of arrays which are explicitly tracked.
  The "true" memory usage will be greater.
------------------------------------------------------------

------------------------------------------------------------
          Begin self-consistency iteration #    1

  Date     :  20200805, Time     :  182559.866
------------------------------------------------------------
  Evaluating new KS density.
  Integration grid: deviation in total charge (<rho> - N_e) =   3.552714E-14
  Pulay mixing of updated and previous charge densities.

  Evaluating partitioned Hartree potential by multipole expansion.
  | Analytical far-field extrapolation by fixed multipoles:
  | Hartree multipole sum: apparent total charge =  -0.139998E-03
  Summing up the Hartree potential.
  Time summed over all CPUs for potential: real work        0.287 s, elapsed        0.287 s
  | RMS charge density error from multipole expansion :   0.591690E-02

  Integrating Hamiltonian matrix: batch-based integration.
  Time summed over all CPUs for integration: real work        0.495 s, elapsed        0.495 s

  Updating Kohn-Sham eigenvalues and eigenvectors using ELSI and the ELPA eigensolver.
  Finished Cholesky decomposition
  | Time :     0.000 s
  Finished transformation to standard eigenproblem
  | Time :     0.000 s
  Starting LAPACK eigensolver
  Finished solving standard eigenproblem
  | Time :     0.002 s
  Finished back-transformation of eigenvectors
  | Time :     0.000 s

  Obtaining occupation numbers and chemical potential using ELSI.
  | Chemical potential (Fermi level):    -4.58321841eV
  Writing Kohn-Sham eigenvalues.

  State    Occupation    Eigenvalue [Ha]    Eigenvalue [eV]
      1       2.00000         -18.909103         -514.54287
      2       2.00000         -18.834718         -512.51874
      3       2.00000         -14.103553         -383.77719
      4       2.00000         -10.117669         -275.31579
      5       2.00000         -10.066535         -273.92435
      6       2.00000         -10.036177         -273.09827
      7       2.00000          -1.137545          -30.95416
      8       2.00000          -1.038320          -28.25412
      9       2.00000          -0.928625          -25.26917
     10       2.00000          -0.797692          -21.70629
     11       2.00000          -0.706595          -19.22742
     12       2.00000          -0.640779          -17.43648
     13       2.00000          -0.592687          -16.12783
     14       2.00000          -0.551093          -14.99602
     15       2.00000          -0.528098          -14.37029
     16       2.00000          -0.499386          -13.58899
     17       2.00000          -0.490702          -13.35267
     18       2.00000          -0.482582          -13.13172
     19       2.00000          -0.459645          -12.50757
     20       2.00000          -0.440772          -11.99401
     21       2.00000          -0.412652          -11.22883
     22       2.00000          -0.373075          -10.15188
     23       2.00000          -0.340815           -9.27405
     24       2.00000          -0.312648           -8.50758
     25       0.00000          -0.119648           -3.25579
     26       0.00000          -0.053073           -1.44418
     27       0.00000           0.004440            0.12081
     28       0.00000           0.011207            0.30497
     29       0.00000           0.027989            0.76161
     30       0.00000           0.046388            1.26228
     31       0.00000           0.051051            1.38917
     32       0.00000           0.068324            1.85919
     33       0.00000           0.087150            2.37146
     34       0.00000           0.096182            2.61724
     35       0.00000           0.141373            3.84694
     36       0.00000           0.160763            4.37460
     37       0.00000           0.173870            4.73125
     38       0.00000           0.232103            6.31584
     39       0.00000           0.249477            6.78861
     40       0.00000           0.264281            7.19145
     41       0.00000           0.287676            7.82805
     42       0.00000           0.309895            8.43268
     43       0.00000           0.330680            8.99825
     44       0.00000           0.333476            9.07435
     45       0.00000           0.350059            9.52558
     46       0.00000           0.396161           10.78009
     47       0.00000           0.399223           10.86340
     48       0.00000           0.426078           11.59416
     49       0.00000           0.464533           12.64058
     50       0.00000           0.523022           14.23215
     51       0.00000           0.551557           15.00862
     52       0.00000           0.560017           15.23884
     53       0.00000           0.593386           16.14685

  Highest occupied state (VBM) at     -8.50757859 eV
  | Occupation number:      2.00000000

  Lowest unoccupied state (CBM) at    -3.25579050 eV
  | Occupation number:      0.00000000

  Overall HOMO-LUMO gap:      5.25178809 eV.

  Total energy components:
  | Sum of eigenvalues            :        -185.60292648 Ha       -5050.51259681 eV
  | XC energy correction          :         -42.13092185 Ha       -1146.44071378 eV
  | XC potential correction       :          54.16656819 Ha        1473.94731410 eV
  | Free-atom electrostatic energy:        -146.81773354 Ha       -3995.11379867 eV
  | Hartree energy correction     :          -3.18652710 Ha         -86.70981407 eV
  | vdW energy correction         :           0.00000000 Ha           0.00000000 eV
  | Entropy correction            :           0.00000000 Ha           0.00000000 eV
  | ---------------------------
  | Total energy                  :        -323.57154077 Ha       -8804.82960924 eV
  | Total energy, T -> 0          :        -323.57154077 Ha       -8804.82960924 eV  <-- do not rely on this value for anything but (periodic) metals
  | Electronic free energy        :        -323.57154077 Ha       -8804.82960924 eV

  Derived energy quantities:
  | Kinetic energy                :         322.31112041 Ha        8770.53182602 eV
  | Electrostatic energy          :        -603.75173933 Ha      -16428.92072147 eV
  | Energy correction for multipole
  | error in Hartree potential    :           0.01189204 Ha           0.32359901 eV
  | Sum of eigenvalues per atom                           :        -388.50096899 eV
  | Total energy (T->0) per atom                          :        -677.29458533 eV  <-- do not rely on this value for anything but (periodic) metals
  | Electronic free energy per atom                       :        -677.29458533 eV

  Self-consistency convergence accuracy:
  | Change of charge density      :  0.5815E+00
  | Change of sum of eigenvalues  :  0.8895E+02 eV
  | Change of total energy        :  0.4879E+01 eV

  End self-consistency iteration #     1       :  max(cpu_time)    wall_clock(cpu1)
  | Time for this iteration                    :        1.186 s           1.194 s
  | Charge density update                      :        0.393 s           0.394 s
  | Density mixing                             :        0.005 s           0.005 s
  | Hartree multipole update                   :        0.009 s           0.009 s
  | Hartree multipole summation                :        0.281 s           0.288 s
  | Integration                                :        0.495 s           0.495 s
  | Solution of K.-S. eqns.                    :        0.002 s           0.002 s
  | Total energy evaluation                    :        0.000 s           0.001 s

  Partial memory accounting:
  | Current value for overall tracked memory usage on task 0  :           0.165 MB
  | Peak value for overall tracked memory usage on task 0     :           0.695 MB after allocating gradient_basis_wave
  | Largest tracked array allocation on task 0 so far         :           0.397 MB  when allocating gradient_basis_wave
  Note:  These values currently only include a subset of arrays which are explicitly tracked.
  The "true" memory usage will be greater.
------------------------------------------------------------

------------------------------------------------------------
          Begin self-consistency iteration #    2

  Date     :  20200805, Time     :  182601.060
------------------------------------------------------------
  Evaluating new KS density.
  Integration grid: deviation in total charge (<rho> - N_e) =   0.000000E+00
  Pulay mixing of updated and previous charge densities.

  Evaluating partitioned Hartree potential by multipole expansion.
  | Analytical far-field extrapolation by fixed multipoles:
  | Hartree multipole sum: apparent total charge =  -0.270405E-03
  Summing up the Hartree potential.
  Time summed over all CPUs for potential: real work        0.280 s, elapsed        0.280 s
  | RMS charge density error from multipole expansion :   0.139897E-01

  Integrating Hamiltonian matrix: batch-based integration.
  Time summed over all CPUs for integration: real work        0.493 s, elapsed        0.493 s

  Updating Kohn-Sham eigenvalues and eigenvectors using ELSI and the ELPA eigensolver.
  Finished Cholesky decomposition
  | Time :     0.000 s
  Finished transformation to standard eigenproblem
  | Time :     0.000 s
  Starting LAPACK eigensolver
  Finished solving standard eigenproblem
  | Time :     0.001 s
  Finished back-transformation of eigenvectors
  | Time :     0.000 s

  Obtaining occupation numbers and chemical potential using ELSI.
  | Chemical potential (Fermi level):    -3.51071647eV
  Highest occupied state (VBM) at     -6.66065768 eV
  | Occupation number:      2.00000000

  Lowest unoccupied state (CBM) at    -2.01603536 eV
  | Occupation number:      0.00000000

  Overall HOMO-LUMO gap:      4.64462232 eV.

  Checking to see if s.c.f. parameters should be adjusted.

  Total energy components:
  | Sum of eigenvalues            :        -182.18885363 Ha       -4957.61094766 eV
  | XC energy correction          :         -42.48130382 Ha       -1155.97509236 eV
  | XC potential correction       :          54.62049491 Ha        1486.29928851 eV
  | Free-atom electrostatic energy:        -146.81773354 Ha       -3995.11379867 eV
  | Hartree energy correction     :          -6.62753011 Ha        -180.34427000 eV
  | vdW energy correction         :           0.00000000 Ha           0.00000000 eV
  | Entropy correction            :           0.00000000 Ha           0.00000000 eV
  | ---------------------------
  | Total energy                  :        -323.49492618 Ha       -8802.74482017 eV
  | Total energy, T -> 0          :        -323.49492618 Ha       -8802.74482017 eV  <-- do not rely on this value for anything but (periodic) metals
  | Electronic free energy        :        -323.49492618 Ha       -8802.74482017 eV

  Derived energy quantities:
  | Kinetic energy                :         323.60317143 Ha        8805.69032315 eV
  | Electrostatic energy          :        -604.61679379 Ha      -16452.46005096 eV
  | Energy correction for multipole
  | error in Hartree potential    :           0.02596019 Ha           0.70641273 eV
  | Sum of eigenvalues per atom                           :        -381.35468828 eV
  | Total energy (T->0) per atom                          :        -677.13421694 eV  <-- do not rely on this value for anything but (periodic) metals
  | Electronic free energy per atom                       :        -677.13421694 eV

  Self-consistency convergence accuracy:
  | Change of charge density      :  0.3637E+00
  | Change of sum of eigenvalues  :  0.9290E+02 eV
  | Change of total energy        :  0.2085E+01 eV

  End self-consistency iteration #     2       :  max(cpu_time)    wall_clock(cpu1)
  | Time for this iteration                    :        1.177 s           1.178 s
  | Charge density update                      :        0.386 s           0.386 s
  | Density mixing                             :        0.007 s           0.007 s
  | Hartree multipole update                   :        0.009 s           0.008 s
  | Hartree multipole summation                :        0.281 s           0.281 s
  | Integration                                :        0.493 s           0.494 s
  | Solution of K.-S. eqns.                    :        0.002 s           0.002 s
  | Total energy evaluation                    :        0.000 s           0.000 s

  Partial memory accounting:
  | Current value for overall tracked memory usage on task 0  :           0.166 MB
  | Peak value for overall tracked memory usage on task 0     :           0.695 MB after allocating gradient_basis_wave
  | Largest tracked array allocation on task 0 so far         :           0.397 MB  when allocating gradient_basis_wave
  Note:  These values currently only include a subset of arrays which are explicitly tracked.
  The "true" memory usage will be greater.
------------------------------------------------------------

------------------------------------------------------------
          Begin self-consistency iteration #    3

  Date     :  20200805, Time     :  182602.239
------------------------------------------------------------
  Evaluating new KS density.
  Integration grid: deviation in total charge (<rho> - N_e) =   3.552714E-14
  Pulay mixing of updated and previous charge densities.

  Evaluating partitioned Hartree potential by multipole expansion.
  | Analytical far-field extrapolation by fixed multipoles:
  | Hartree multipole sum: apparent total charge =  -0.359317E-03
  Summing up the Hartree potential.
  Time summed over all CPUs for potential: real work        0.280 s, elapsed        0.280 s
  | RMS charge density error from multipole expansion :   0.220334E-01

  Integrating Hamiltonian matrix: batch-based integration.
  Time summed over all CPUs for integration: real work        0.492 s, elapsed        0.492 s

  Updating Kohn-Sham eigenvalues and eigenvectors using ELSI and the ELPA eigensolver.
  Finished Cholesky decomposition
  | Time :     0.000 s
  Finished transformation to standard eigenproblem
  | Time :     0.000 s
  Starting LAPACK eigensolver
  Finished solving standard eigenproblem
  | Time :     0.001 s
  Finished back-transformation of eigenvectors
  | Time :     0.000 s

  Obtaining occupation numbers and chemical potential using ELSI.
  | Chemical potential (Fermi level):    -2.94256640eV
  Highest occupied state (VBM) at     -6.03365706 eV
  | Occupation number:      2.00000000

  Lowest unoccupied state (CBM) at    -1.31433606 eV
  | Occupation number:      0.00000000

  Overall HOMO-LUMO gap:      4.71932101 eV.

  Total energy components:
  | Sum of eigenvalues            :        -180.87798926 Ha       -4921.94051324 eV
  | XC energy correction          :         -42.63543629 Ha       -1160.16925024 eV
  | XC potential correction       :          54.81691938 Ha        1491.64427028 eV
  | Free-atom electrostatic energy:        -146.81773354 Ha       -3995.11379867 eV
  | Hartree energy correction     :          -7.96815642 Ha        -216.82456823 eV
  | vdW energy correction         :           0.00000000 Ha           0.00000000 eV
  | Entropy correction            :           0.00000000 Ha           0.00000000 eV
  | ---------------------------
  | Total energy                  :        -323.48239613 Ha       -8802.40386011 eV
  | Total energy, T -> 0          :        -323.48239613 Ha       -8802.40386011 eV  <-- do not rely on this value for anything but (periodic) metals
  | Electronic free energy        :        -323.48239613 Ha       -8802.40386011 eV

  Derived energy quantities:
  | Kinetic energy                :         323.24910350 Ha        8796.05564459 eV
  | Electrostatic energy          :        -604.09606334 Ha      -16438.29025445 eV
  | Energy correction for multipole
  | error in Hartree potential    :           0.03654346 Ha           0.99439810 eV
  | Sum of eigenvalues per atom                           :        -378.61080871 eV
  | Total energy (T->0) per atom                          :        -677.10798924 eV  <-- do not rely on this value for anything but (periodic) metals
  | Electronic free energy per atom                       :        -677.10798924 eV

  Self-consistency convergence accuracy:
  | Change of charge density      :  0.2046E+00
  | Change of sum of eigenvalues  :  0.3567E+02 eV
  | Change of total energy        :  0.3410E+00 eV

  End self-consistency iteration #     3       :  max(cpu_time)    wall_clock(cpu1)
  | Time for this iteration                    :        1.178 s           1.179 s
  | Charge density update                      :        0.387 s           0.386 s
  | Density mixing                             :        0.008 s           0.009 s
  | Hartree multipole update                   :        0.009 s           0.008 s
  | Hartree multipole summation                :        0.281 s           0.281 s
  | Integration                                :        0.492 s           0.492 s
  | Solution of K.-S. eqns.                    :        0.002 s           0.002 s
  | Total energy evaluation                    :        0.000 s           0.001 s

  Partial memory accounting:
  | Current value for overall tracked memory usage on task 0  :           0.166 MB
  | Peak value for overall tracked memory usage on task 0     :           0.695 MB after allocating gradient_basis_wave
  | Largest tracked array allocation on task 0 so far         :           0.397 MB  when allocating gradient_basis_wave
  Note:  These values currently only include a subset of arrays which are explicitly tracked.
  The "true" memory usage will be greater.
------------------------------------------------------------

------------------------------------------------------------
          Begin self-consistency iteration #    4

  Date     :  20200805, Time     :  182603.418
------------------------------------------------------------
  Evaluating new KS density.
  Integration grid: deviation in total charge (<rho> - N_e) =   7.815970E-14
  Pulay mixing of updated and previous charge densities.

  Evaluating partitioned Hartree potential by multipole expansion.
  | Analytical far-field extrapolation by fixed multipoles:
  | Hartree multipole sum: apparent total charge =  -0.388134E-03
  Summing up the Hartree potential.
  Time summed over all CPUs for potential: real work        0.280 s, elapsed        0.280 s
  | RMS charge density error from multipole expansion :   0.255856E-01

  Integrating Hamiltonian matrix: batch-based integration.
  Time summed over all CPUs for integration: real work        0.492 s, elapsed        0.492 s

  Updating Kohn-Sham eigenvalues and eigenvectors using ELSI and the ELPA eigensolver.
  Finished Cholesky decomposition
  | Time :     0.000 s
  Finished transformation to standard eigenproblem
  | Time :     0.000 s
  Starting LAPACK eigensolver
  Finished solving standard eigenproblem
  | Time :     0.001 s
  Finished back-transformation of eigenvectors
  | Time :     0.000 s

  Obtaining occupation numbers and chemical potential using ELSI.
  | Chemical potential (Fermi level):    -2.85008789eV
  Highest occupied state (VBM) at     -5.83557484 eV
  | Occupation number:      2.00000000

  Lowest unoccupied state (CBM) at    -1.22919473 eV
  | Occupation number:      0.00000000

  Overall HOMO-LUMO gap:      4.60638011 eV.

  Total energy components:
  | Sum of eigenvalues            :        -180.77184030 Ha       -4919.05205331 eV
  | XC energy correction          :         -42.67256557 Ha       -1161.17958946 eV
  | XC potential correction       :          54.86338353 Ha        1492.90862427 eV
  | Free-atom electrostatic energy:        -146.81773354 Ha       -3995.11379867 eV
  | Hartree energy correction     :          -8.08258407 Ha        -219.93830297 eV
  | vdW energy correction         :           0.00000000 Ha           0.00000000 eV
  | Entropy correction            :           0.00000000 Ha           0.00000000 eV
  | ---------------------------
  | Total energy                  :        -323.48133996 Ha       -8802.37512013 eV
  | Total energy, T -> 0          :        -323.48133996 Ha       -8802.37512013 eV  <-- do not rely on this value for anything but (periodic) metals
  | Electronic free energy        :        -323.48133996 Ha       -8802.37512013 eV

  Derived energy quantities:
  | Kinetic energy                :         322.85056679 Ha        8785.21090883 eV
  | Electrostatic energy          :        -603.65934117 Ha      -16426.40643951 eV
  | Energy correction for multipole
  | error in Hartree potential    :           0.04066735 Ha           1.10661485 eV
  | Sum of eigenvalues per atom                           :        -378.38861949 eV
  | Total energy (T->0) per atom                          :        -677.10577847 eV  <-- do not rely on this value for anything but (periodic) metals
  | Electronic free energy per atom                       :        -677.10577847 eV

  Self-consistency convergence accuracy:
  | Change of charge density      :  0.6817E-01
  | Change of sum of eigenvalues  :  0.2888E+01 eV
  | Change of total energy        :  0.2874E-01 eV

  End self-consistency iteration #     4       :  max(cpu_time)    wall_clock(cpu1)
  | Time for this iteration                    :        1.178 s           1.179 s
  | Charge density update                      :        0.385 s           0.386 s
  | Density mixing                             :        0.009 s           0.009 s
  | Hartree multipole update                   :        0.009 s           0.009 s
  | Hartree multipole summation                :        0.281 s           0.281 s
  | Integration                                :        0.492 s           0.492 s
  | Solution of K.-S. eqns.                    :        0.002 s           0.002 s
  | Total energy evaluation                    :        0.000 s           0.000 s

  Partial memory accounting:
  | Current value for overall tracked memory usage on task 0  :           0.166 MB
  | Peak value for overall tracked memory usage on task 0     :           0.696 MB after allocating gradient_basis_wave
  | Largest tracked array allocation on task 0 so far         :           0.397 MB  when allocating gradient_basis_wave
  Note:  These values currently only include a subset of arrays which are explicitly tracked.
  The "true" memory usage will be greater.
------------------------------------------------------------

------------------------------------------------------------
          Begin self-consistency iteration #    5

  Date     :  20200805, Time     :  182604.598
------------------------------------------------------------
  Evaluating new KS density.
  Integration grid: deviation in total charge (<rho> - N_e) =  -7.105427E-15
  Pulay mixing of updated and previous charge densities.

  Evaluating partitioned Hartree potential by multipole expansion.
  | Analytical far-field extrapolation by fixed multipoles:
  | Hartree multipole sum: apparent total charge =  -0.382686E-03
  Summing up the Hartree potential.
  Time summed over all CPUs for potential: real work        0.281 s, elapsed        0.281 s
  | RMS charge density error from multipole expansion :   0.253546E-01

  Integrating Hamiltonian matrix: batch-based integration.
  Time summed over all CPUs for integration: real work        0.492 s, elapsed        0.492 s

  Updating Kohn-Sham eigenvalues and eigenvectors using ELSI and the ELPA eigensolver.
  Finished Cholesky decomposition
  | Time :     0.000 s
  Finished transformation to standard eigenproblem
  | Time :     0.000 s
  Starting LAPACK eigensolver
  Finished solving standard eigenproblem
  | Time :     0.001 s
  Finished back-transformation of eigenvectors
  | Time :     0.000 s

  Obtaining occupation numbers and chemical potential using ELSI.
  | Chemical potential (Fermi level):    -2.89351295eV
  Highest occupied state (VBM) at     -5.93542098 eV
  | Occupation number:      2.00000000

  Lowest unoccupied state (CBM) at    -1.30929660 eV
  | Occupation number:      0.00000000

  Overall HOMO-LUMO gap:      4.62612438 eV.

  Total energy components:
  | Sum of eigenvalues            :        -180.93791498 Ha       -4923.57117505 eV
  | XC energy correction          :         -42.65132835 Ha       -1160.60169511 eV
  | XC potential correction       :          54.83584172 Ha        1492.15917334 eV
  | Free-atom electrostatic energy:        -146.81773354 Ha       -3995.11379867 eV
  | Hartree energy correction     :          -7.90991439 Ha        -215.23972187 eV
  | vdW energy correction         :           0.00000000 Ha           0.00000000 eV
  | Entropy correction            :           0.00000000 Ha           0.00000000 eV
  | ---------------------------
  | Total energy                  :        -323.48104953 Ha       -8802.36721735 eV
  | Total energy, T -> 0          :        -323.48104953 Ha       -8802.36721735 eV  <-- do not rely on this value for anything but (periodic) metals
  | Electronic free energy        :        -323.48104953 Ha       -8802.36721735 eV

  Derived energy quantities:
  | Kinetic energy                :         322.75368892 Ha        8782.57472802 eV
  | Electrostatic energy          :        -603.58341011 Ha      -16424.34025026 eV
  | Energy correction for multipole
  | error in Hartree potential    :           0.04007211 Ha           1.09041753 eV
  | Sum of eigenvalues per atom                           :        -378.73624423 eV
  | Total energy (T->0) per atom                          :        -677.10517057 eV  <-- do not rely on this value for anything but (periodic) metals
  | Electronic free energy per atom                       :        -677.10517057 eV

  Self-consistency convergence accuracy:
  | Change of charge density      :  0.2173E-01
  | Change of sum of eigenvalues  : -0.4519E+01 eV
  | Change of total energy        :  0.7903E-02 eV

  End self-consistency iteration #     5       :  max(cpu_time)    wall_clock(cpu1)
  | Time for this iteration                    :        1.179 s           1.180 s
  | Charge density update                      :        0.385 s           0.385 s
  | Density mixing                             :        0.011 s           0.010 s
  | Hartree multipole update                   :        0.008 s           0.009 s
  | Hartree multipole summation                :        0.281 s           0.281 s
  | Integration                                :        0.492 s           0.492 s
  | Solution of K.-S. eqns.                    :        0.002 s           0.002 s
  | Total energy evaluation                    :        0.000 s           0.001 s

  Partial memory accounting:
  | Current value for overall tracked memory usage on task 0  :           0.166 MB
  | Peak value for overall tracked memory usage on task 0     :           0.696 MB after allocating gradient_basis_wave
  | Largest tracked array allocation on task 0 so far         :           0.397 MB  when allocating gradient_basis_wave
  Note:  These values currently only include a subset of arrays which are explicitly tracked.
  The "true" memory usage will be greater.
------------------------------------------------------------

------------------------------------------------------------
          Begin self-consistency iteration #    6

  Date     :  20200805, Time     :  182605.778
------------------------------------------------------------
  Evaluating new KS density.
  Integration grid: deviation in total charge (<rho> - N_e) =  -1.421085E-14
  Pulay mixing of updated and previous charge densities.

  Evaluating partitioned Hartree potential by multipole expansion.
  | Analytical far-field extrapolation by fixed multipoles:
  | Hartree multipole sum: apparent total charge =  -0.384733E-03
  Summing up the Hartree potential.
  Time summed over all CPUs for potential: real work        0.281 s, elapsed        0.281 s
  | RMS charge density error from multipole expansion :   0.257445E-01

  Integrating Hamiltonian matrix: batch-based integration.
  Time summed over all CPUs for integration: real work        0.492 s, elapsed        0.492 s

  Updating Kohn-Sham eigenvalues and eigenvectors using ELSI and the ELPA eigensolver.
  Finished Cholesky decomposition
  | Time :     0.000 s
  Finished transformation to standard eigenproblem
  | Time :     0.000 s
  Starting LAPACK eigensolver
  Finished solving standard eigenproblem
  | Time :     0.001 s
  Finished back-transformation of eigenvectors
  | Time :     0.000 s

  Obtaining occupation numbers and chemical potential using ELSI.
  | Chemical potential (Fermi level):    -2.89708185eV
  Highest occupied state (VBM) at     -5.92425119 eV
  | Occupation number:      2.00000000

  Lowest unoccupied state (CBM) at    -1.33719184 eV
  | Occupation number:      0.00000000

  Overall HOMO-LUMO gap:      4.58705935 eV.

  Total energy components:
  | Sum of eigenvalues            :        -180.96578682 Ha       -4924.32960640 eV
  | XC energy correction          :         -42.64802758 Ha       -1160.51187655 eV
  | XC potential correction       :          54.83151664 Ha        1492.04148201 eV
  | Free-atom electrostatic energy:        -146.81773354 Ha       -3995.11379867 eV
  | Hartree energy correction     :          -7.88096386 Ha        -214.45193778 eV
  | vdW energy correction         :           0.00000000 Ha           0.00000000 eV
  | Entropy correction            :           0.00000000 Ha           0.00000000 eV
  | ---------------------------
  | Total energy                  :        -323.48099515 Ha       -8802.36573740 eV
  | Total energy, T -> 0          :        -323.48099515 Ha       -8802.36573740 eV  <-- do not rely on this value for anything but (periodic) metals
  | Electronic free energy        :        -323.48099515 Ha       -8802.36573740 eV

  Derived energy quantities:
  | Kinetic energy                :         322.66827142 Ha        8780.25039958 eV
  | Electrostatic energy          :        -603.50123899 Ha      -16422.10426043 eV
  | Energy correction for multipole
  | error in Hartree potential    :           0.04032642 Ha           1.09733766 eV
  | Sum of eigenvalues per atom                           :        -378.79458511 eV
  | Total energy (T->0) per atom                          :        -677.10505672 eV  <-- do not rely on this value for anything but (periodic) metals
  | Electronic free energy per atom                       :        -677.10505672 eV

  Self-consistency convergence accuracy:
  | Change of charge density      :  0.1070E-01
  | Change of sum of eigenvalues  : -0.7584E+00 eV
  | Change of total energy        :  0.1480E-02 eV

  End self-consistency iteration #     6       :  max(cpu_time)    wall_clock(cpu1)
  | Time for this iteration                    :        1.181 s           1.182 s
  | Charge density update                      :        0.385 s           0.386 s
  | Density mixing                             :        0.012 s           0.012 s
  | Hartree multipole update                   :        0.009 s           0.008 s
  | Hartree multipole summation                :        0.281 s           0.281 s
  | Integration                                :        0.492 s           0.493 s
  | Solution of K.-S. eqns.                    :        0.002 s           0.002 s
  | Total energy evaluation                    :        0.000 s           0.000 s

  Partial memory accounting:
  | Current value for overall tracked memory usage on task 0  :           0.166 MB
  | Peak value for overall tracked memory usage on task 0     :           0.696 MB after allocating gradient_basis_wave
  | Largest tracked array allocation on task 0 so far         :           0.397 MB  when allocating gradient_basis_wave
  Note:  These values currently only include a subset of arrays which are explicitly tracked.
  The "true" memory usage will be greater.
------------------------------------------------------------

------------------------------------------------------------
          Begin self-consistency iteration #    7

  Date     :  20200805, Time     :  182606.961
------------------------------------------------------------
  Evaluating new KS density.
  Integration grid: deviation in total charge (<rho> - N_e) =   4.973799E-14
  Pulay mixing of updated and previous charge densities.

  Evaluating partitioned Hartree potential by multipole expansion.
  | Analytical far-field extrapolation by fixed multipoles:
  | Hartree multipole sum: apparent total charge =  -0.385344E-03
  Summing up the Hartree potential.
  Time summed over all CPUs for potential: real work        0.281 s, elapsed        0.281 s
  | RMS charge density error from multipole expansion :   0.258780E-01

  Integrating Hamiltonian matrix: batch-based integration.
  Time summed over all CPUs for integration: real work        0.494 s, elapsed        0.494 s

  Updating Kohn-Sham eigenvalues and eigenvectors using ELSI and the ELPA eigensolver.
  Finished Cholesky decomposition
  | Time :     0.000 s
  Finished transformation to standard eigenproblem
  | Time :     0.000 s
  Starting LAPACK eigensolver
  Finished solving standard eigenproblem
  | Time :     0.002 s
  Finished back-transformation of eigenvectors
  | Time :     0.000 s

[...]
  |   Hirshfeld dipole moment :      0.05794453
  |   Hirshfeld second moments:      0.00479548      -0.02957213      -0.01924845
  |                                 -0.02957213      -0.02082042       0.00987348
  |                                 -0.01924845       0.00987348      -0.01403648
  ----------------------------------------------------------------------
  | Atom    12: O
  |   Hirshfeld charge        :     -0.14186094
  |   Free atom volume        :     23.61338643
  |   Hirshfeld volume        :     20.89324958
  |   Hirshfeld dipole vector :      0.01215334       0.04135821      -0.00577110
  |   Hirshfeld dipole moment :      0.04349150
  |   Hirshfeld second moments:      0.09391298      -0.01817189       0.01722930
  |                                 -0.01817189       0.03208573       0.00608434
  |                                  0.01722930       0.00608434       0.05331524
  ----------------------------------------------------------------------
  | Atom    13: H
  |   Hirshfeld charge        :      0.16101617
  |   Free atom volume        :      9.95071624
  |   Hirshfeld volume        :      6.45888844
  |   Hirshfeld dipole vector :     -0.09182475       0.04597219      -0.03155350
  |   Hirshfeld dipole moment :      0.10742835
  |   Hirshfeld second moments:      0.11823605      -0.00431806       0.00276806
  |                                 -0.00431806       0.08869906       0.02045751
  |                                  0.00276806       0.02045751       0.10770297
  ----------------------------------------------------------------------


  Total energy components:
  | Sum of eigenvalues            :        -180.96319791 Ha       -4924.25915877 eV
  | XC energy correction          :         -42.64520632 Ha       -1160.43510622 eV
  | XC potential correction       :          54.82793826 Ha        1491.94410944 eV
  | Free-atom electrostatic energy:        -146.81773354 Ha       -3995.11379867 eV
  | Hartree energy correction     :          -7.88277287 Ha        -214.50116347 eV
  | vdW energy correction         :          -0.00331963 Ha          -0.09033172 eV
  | Entropy correction            :           0.00000000 Ha           0.00000000 eV
  | ---------------------------
  | Total energy                  :        -323.48429200 Ha       -8802.45544940 eV
  | Total energy, T -> 0          :        -323.48429200 Ha       -8802.45544940 eV  <-- do not rely on this value for anything but (periodic) metals
  | Electronic free energy        :        -323.48429200 Ha       -8802.45544940 eV

  Derived energy quantities:
  | Kinetic energy                :         322.62915417 Ha        8779.18596502 eV
  | Electrostatic energy          :        -603.46492022 Ha      -16421.11597649 eV
  | Energy correction for multipole
  | error in Hartree potential    :           0.04036877 Ha           1.09849025 eV
  | Sum of eigenvalues per atom                           :        -378.78916606 eV
  | Total energy (T->0) per atom                          :        -677.11195765 eV  <-- do not rely on this value for anything but (periodic) metals
  | Electronic free energy per atom                       :        -677.11195765 eV

  atomic forces [eV/Ang]:
  -----------------------
  atom #    1
   Hellmann-Feynman              :  0.336471E+00 -0.172515E-01  0.145231E+01
   Ionic forces                  :  0.000000E+00  0.000000E+00  0.000000E+00
   Multipole                     : -0.138544E+00  0.317245E+00 -0.254331E+00
   Pulay + GGA                   : -0.755731E+00  0.359945E-01 -0.154297E+01
   Van der Waals                 :  0.309002E-02  0.151242E-02 -0.132629E-02
   ----------------------------------------------------------------
   Total forces(   1)            : -0.554713E+00  0.337501E+00 -0.346322E+00
  atom #    2
   Hellmann-Feynman              :  0.350908E+00 -0.577300E-01  0.108454E+00
   Ionic forces                  :  0.000000E+00  0.000000E+00  0.000000E+00
   Multipole                     :  0.174450E+00  0.269469E-01 -0.362185E-01
   Pulay + GGA                   : -0.164221E+00  0.218830E-01 -0.203471E-01
   Van der Waals                 :  0.445826E-02 -0.409129E-02 -0.676140E-02
   ----------------------------------------------------------------
   Total forces(   2)            :  0.365595E+00 -0.129914E-01  0.451267E-01
  atom #    3
   Hellmann-Feynman              :  0.907201E+01  0.619088E+00 -0.542633E+01
   Ionic forces                  :  0.000000E+00  0.000000E+00  0.000000E+00
   Multipole                     : -0.350650E+00  0.170735E+00 -0.116382E+01
   Pulay + GGA                   : -0.844445E+01 -0.784208E+00  0.716218E+01
   Van der Waals                 :  0.431328E-02 -0.454855E-02 -0.894093E-02
   ----------------------------------------------------------------
   Total forces(   3)            :  0.281218E+00  0.106698E-02  0.563095E+00
  atom #    4
   Hellmann-Feynman              : -0.256240E-01  0.121288E+00 -0.451841E+00
   Ionic forces                  :  0.000000E+00  0.000000E+00  0.000000E+00
   Multipole                     : -0.583814E-01 -0.637646E-01 -0.691800E-01
   Pulay + GGA                   :  0.260897E+00  0.166866E+00 -0.826791E-01
   Van der Waals                 : -0.128958E-02  0.336939E-02  0.231558E-02
   ----------------------------------------------------------------
   Total forces(   4)            :  0.175602E+00  0.227758E+00 -0.601385E+00
  atom #    5
   Hellmann-Feynman              : -0.307233E+00  0.502267E-01 -0.102857E+00
   Ionic forces                  :  0.000000E+00  0.000000E+00  0.000000E+00
   Multipole                     : -0.790950E-01  0.379852E-01 -0.546338E-01
   Pulay + GGA                   :  0.198367E+00 -0.117005E+00 -0.274122E-01
   Van der Waals                 : -0.459007E-03 -0.519844E-02 -0.702786E-02
   ----------------------------------------------------------------
   Total forces(   5)            : -0.188420E+00 -0.339918E-01 -0.191931E+00
  atom #    6
   Hellmann-Feynman              :  0.173481E+00 -0.536564E+00  0.207428E+00
   Ionic forces                  :  0.000000E+00  0.000000E+00  0.000000E+00
   Multipole                     : -0.142676E+00  0.561802E+00  0.279111E+00
   Pulay + GGA                   :  0.253298E+00 -0.439334E+00 -0.378538E+00
   Van der Waals                 : -0.372800E-02  0.440919E-02 -0.277704E-02
   ----------------------------------------------------------------
   Total forces(   6)            :  0.280375E+00 -0.409687E+00  0.105224E+00
  atom #    7
   Hellmann-Feynman              : -0.254628E+00 -0.586604E-01 -0.252510E-01
   Ionic forces                  :  0.000000E+00  0.000000E+00  0.000000E+00
   Multipole                     : -0.116270E+00  0.505474E-01  0.263637E-01
   Pulay + GGA                   :  0.101695E+00  0.225109E-01  0.318654E-01
   Van der Waals                 : -0.309711E-02  0.753755E-04  0.681528E-02
   ----------------------------------------------------------------
   Total forces(   7)            : -0.272300E+00  0.144733E-01  0.397934E-01
  atom #    8
   Hellmann-Feynman              :  0.851262E-01 -0.753227E-02  0.157393E+00
   Ionic forces                  :  0.000000E+00  0.000000E+00  0.000000E+00
   Multipole                     :  0.112476E-01  0.647405E-01  0.121819E+00
   Pulay + GGA                   : -0.469133E-01 -0.455765E-01 -0.118901E+00
   Van der Waals                 : -0.331552E-02  0.110784E-01  0.456227E-03
   ----------------------------------------------------------------
   Total forces(   8)            :  0.461451E-01  0.227101E-01  0.160767E+00
  atom #    9
   Hellmann-Feynman              :  0.104373E+00  0.721299E-01 -0.174895E+00
   Ionic forces                  :  0.000000E+00  0.000000E+00  0.000000E+00
   Multipole                     :  0.183720E-01  0.132704E+00 -0.112403E-01
   Pulay + GGA                   : -0.265048E-01 -0.856506E-01  0.611732E-01
   Van der Waals                 : -0.377134E-03  0.676751E-02  0.836436E-02
   ----------------------------------------------------------------
   Total forces(   9)            :  0.958630E-01  0.125951E+00 -0.116597E+00
  atom #   10
   Hellmann-Feynman              :  0.273277E+01  0.484582E+01  0.241166E+01
   Ionic forces                  :  0.000000E+00  0.000000E+00  0.000000E+00
   Multipole                     :  0.467065E-01 -0.139762E-01  0.237269E+00
   Pulay + GGA                   : -0.977125E+00 -0.326979E+01 -0.438925E+00
   Van der Waals                 :  0.308874E-02 -0.126309E-01  0.623243E-03
   ----------------------------------------------------------------
   Total forces(  10)            :  0.180544E+01  0.154942E+01  0.221063E+01
  atom #   11
   Hellmann-Feynman              :  0.389227E+01 -0.241273E+01  0.141366E+02
   Ionic forces                  :  0.000000E+00  0.000000E+00  0.000000E+00
   Multipole                     : -0.414434E-02 -0.462367E+00  0.782289E+00
   Pulay + GGA                   : -0.284224E+01  0.334269E+01 -0.141318E+02
   Van der Waals                 : -0.199572E-03 -0.121103E-01  0.553295E-02
   ----------------------------------------------------------------
   Total forces(  11)            :  0.104569E+01  0.455479E+00  0.792595E+00
  atom #   12
   Hellmann-Feynman              : -0.131629E+01 -0.149813E+02 -0.233624E+01
   Ionic forces                  :  0.000000E+00  0.000000E+00  0.000000E+00
   Multipole                     : -0.837616E+00 -0.155705E+01  0.336250E-01
   Pulay + GGA                   : -0.131988E+00  0.146834E+02  0.669081E+00
   Van der Waals                 :  0.906696E-04  0.807265E-02  0.332172E-02
   ----------------------------------------------------------------
   Total forces(  12)            : -0.228580E+01 -0.184692E+01 -0.163021E+01
  atom #   13
   Hellmann-Feynman              : -0.938996E+00 -0.209356E+00 -0.124052E+01
   Ionic forces                  :  0.000000E+00  0.000000E+00  0.000000E+00
   Multipole                     : -0.918866E-01  0.659781E-01 -0.154262E-01
   Pulay + GGA                   :  0.234134E+00 -0.288791E+00  0.220548E+00
   Van der Waals                 : -0.257506E-02  0.329454E-02 -0.595836E-03
   ----------------------------------------------------------------
   Total forces(  13)            : -0.799323E+00 -0.428874E+00 -0.103599E+01

  Timings for VdW correction (Tkatchenko-Scheffler 2009 or later):
  | CPU time:        0.090 s, Wall clock time:        0.090 s.
  Removing unitary transformations (pure translations, rotations) from forces on atoms.
  Atomic forces before filtering:
  | Net force on center of mass :  -0.462972E-02  0.189382E-02 -0.520427E-02 eV/A
  | Net torque on center of mass:   0.121583E-02  0.118575E-02 -0.618012E-02 eV
  Atomic forces after filtering:
  | Net force on center of mass :   0.178406E-15  0.000000E+00 -0.178406E-15 eV/A
  | Net torque on center of mass:   0.236021E-16 -0.566451E-15  0.132172E-14 eV

  Energy and forces in a compact form:
  | Total energy uncorrected      :         -0.880245544940008E+04 eV
  | Total energy corrected        :         -0.880245544940008E+04 eV  <-- do not rely on this value for anything but (periodic) metals
  | Electronic free energy        :         -0.880245544940008E+04 eV
  Total atomic forces (unitary forces cleaned) [eV/Ang]:
  |   1         -0.554362874727166E+00          0.337469351253299E+00         -0.345898989038054E+00
  |   2          0.365945679410193E+00         -0.127922216552112E-01          0.455978044826818E-01
  |   3          0.281629913364134E+00          0.907147268328637E-03          0.563497844980513E+00
  |   4          0.176206898971320E+00          0.227492104330282E+00         -0.600986241738900E+00
  |   5         -0.188167833148942E+00         -0.342877638745900E-01         -0.191571575875997E+00
  |   6          0.280427656262707E+00         -0.409808983316821E+00          0.105601326398100E+00
  |   7         -0.272253873541236E+00          0.141215616692995E-01          0.401226416444032E-01
  |   8          0.461502036260225E-01          0.226846154394894E-01          0.161159915901551E+00
  |   9          0.957481302450522E-01          0.125895361179372E+00         -0.116221585922718E+00
  |  10          0.180602772979329E+01          0.154932346125970E+01          0.221106073721136E+01
  |  11          0.104628911446705E+01          0.455462212566133E+00          0.793044468117009E+00
  |  12         -0.228500085773657E+01         -0.184718591470222E+01         -0.162979186382631E+01
  |  13         -0.798639886985852E+00         -0.429280931417062E+00         -0.103561448233364E+01

  ------------------------------------ 
  Start decomposition of the XC Energy 
  ------------------------------------ 
  X and C from original XC functional choice 
  Hartree-Fock Energy :          0.000000000 Ha              0.000000000 eV
  X Energy            :        -41.042294883 Ha          -1116.817666832 eV
  C Energy            :         -1.602911435 Ha            -43.617439385 eV
  Total XC Energy     :        -42.645206319 Ha          -1160.435106217 eV
  ------------------------------------ 
  LDA X and C from self-consistent density 
  X Energy LDA        :        -37.264175654 Ha          -1014.009811791 eV
  C Energy LDA        :         -3.139281896 Ha            -85.424206714 eV
  ------------------------------------ 
  End decomposition of the XC Energy 
  ------------------------------------ 

------------------------------------------------------------

------------------------------------------------------------------------------
  Final output of selected total energy values:

  The following output summarizes some interesting total energy values
  at the end of a run (AFTER all relaxation, molecular dynamics, etc.).

  | Total energy of the DFT / Hartree-Fock s.c.f. calculation      :          -8802.455449400 eV
  | Final zero-broadening corrected energy (caution - metals only) :          -8802.455449400 eV
  | For reference only, the value of 1 Hartree used in FHI-aims is :             27.211384500 eV

  Before relying on these values, please be sure to understand exactly which
  total energy value is referred to by a given number. Different objects may
  all carry the same name 'total energy'. Definitions:

  Total energy of the DFT / Hartree-Fock s.c.f. calculation:
  | Note that this energy does not include ANY quantities calculated after the
  | s.c.f. cycle, in particular not ANY RPA, MP2, etc. many-body perturbation terms.

  Final zero-broadening corrected energy:
  | For metallic systems only, a broadening of the occupation numbers at the Fermi
  | level can be extrapolated back to zero broadening by an electron-gas inspired
  | formula. For all systems that are not real metals, this value can be
  | meaningless and should be avoided.

------------------------------------------------------------------------------
  Methods described in the following list of references were used in this FHI-aims run.
  If you publish the results, please make sure to cite these reference if they apply.
  FHI-aims is an academic code, and for our developers (often, Ph.D. students
  and postdocs), scientific credit in the community is essential.
  Thank you for helping us!

  For any use of FHI-aims, please cite:

    Volker Blum, Ralf Gehrke, Felix Hanke, Paula Havu, Ville Havu,
    Xinguo Ren, Karsten Reuter, and Matthias Scheffler
    'Ab initio molecular simulations with numeric atom-centered orbitals'
    Computer Physics Communications 180, 2175-2196 (2009)
    http://dx.doi.org/10.1016/j.cpc.2009.06.022


  The scalable eigensolver library ELPA was used in your run.
  ELPA is essential especially for large systems on hundreds or thousands of CPUs.
  For ELPA, please cite:

    Andreas Marek, Volker Blum, Rainer Johanni, Ville Havu, Bruno Lang,
    Thomas Auckenthaler, Alexander Heinecke, Hans-Joachim Bungartz, and Hermann Lederer,
    'The ELPA Library - Scalable Parallel Eigenvalue Solutions
    for Electronic Structure Theory and Computational Science'
    The Journal of Physics: Condensed Matter 26, 213201 (2014).
    http://dx.doi.org/10.1088/0953-8984/26/21/213201


  The ELSI infrastructure was used in your run to solve the Kohn-Sham electronic structure.
  Please check out http://elsi-interchange.org to learn more.
  If scalability is important for your project, please acknowledge ELSI by citing:

    V. W-z. Yu, F. Corsetti, A. Garcia, W. P. Huhn, M. Jacquelin, W. Jia,
    B. Lange, L. Lin, J. Lu, W. Mi, A. Seifitokaldani, A. Vazquez-Mayagoitia,
    C. Yang, H. Yang, and V. Blum
    'ELSI: A unified software interface for Kohn-Sham electronic structure solvers'
    Computer Physics Communications 222, 267-285 (2018).
    http://dx.doi.org/10.1016/j.cpc.2017.09.007


  For the real-space grid partitioning and parallelization used in this calculation, please cite:

    Ville Havu, Volker Blum, Paula Havu, and Matthias Scheffler,
    'Efficient O(N) integration for all-electron electronic structure calculation'
    'using numerically tabulated basis functions'
    Journal of Computational Physics 228, 8367-8379 (2009).
    http://dx.doi.org/10.1016/j.jcp.2009.08.008

  Of course, there are many other important community references, e.g., those cited in the
  above references. Our list is limited to references that describe implementations in the
  FHI-aims code. The reason is purely practical (length of this list) - please credit others as well.

------------------------------------------------------------
          Leaving FHI-aims.
          Date     :  20200805, Time     :  182621.193

          Computational steps:
          | Number of self-consistency cycles          :           16
          | Number of SCF (re)initializations          :            1

          Detailed time accounting                     :  max(cpu_time)    wall_clock(cpu1)
          | Total time                                 :       22.584 s          22.630 s
          | Preparation time                           :        0.143 s           0.144 s
          | Boundary condition initalization           :        0.000 s           0.000 s
          | Grid partitioning                          :        0.110 s           0.110 s
          | Preloading free-atom quantities on grid    :        0.002 s           0.002 s
          | Free-atom superposition energy             :        0.084 s           0.085 s
          | Total time for integrations                :        8.589 s           8.599 s
          | Total time for solution of K.-S. equations :        0.035 s           0.038 s
          | Total time for density & force components  :        7.113 s           7.120 s
          | Total time for mixing                      :        0.210 s           0.210 s
          | Total time for Hartree multipole update    :        0.138 s           0.137 s
          | Total time for Hartree multipole sum       :        5.763 s           5.776 s
          | Total time for total energy evaluation     :        0.003 s           0.003 s
          | Total time for vdW correction              :        0.090 s           0.090 s

          Partial memory accounting:
          | Residual value for overall tracked memory usage across tasks :           0.000 MB (should be 0.000 MB)
          | Peak values for overall tracked memory usage (after allocating hessian_basis_wave):
          |   Minimum:        1.622 MB (on task 1)
          |   Maximum:        1.622 MB (on task 1)
          |   Average:        1.622 MB
          | Largest tracked array allocation (hessian_basis_wave):
          |   Minimum:        0.794 MB (on task 1)
          |   Maximum:        0.794 MB (on task 1)
          |   Average:        0.794 MB
          Note:  These values currently only include a subset of arrays which are explicitly tracked.
          The "true" memory usage will be greater.

          Have a nice day.
------------------------------------------------------------
