  MPI-parallelism will be employed.
------------------------------------------------------------
          Invoking FHI-aims ...
          Version 171221_1
          Compiled on 2019/09/09 at 14:39:39 on host puhti-login2.bullx.

          When using FHI-aims, please cite the following reference:

          Volker Blum, Ralf Gehrke, Felix Hanke, Paula Havu,
          Ville Havu, Xinguo Ren, Karsten Reuter, and Matthias Scheffler,
          'Ab Initio Molecular Simulations with Numeric Atom-Centered Orbitals',
          Computer Physics Communications 180, 2175-2196 (2009)

          For any questions about FHI-aims, please visit the aimsclub website
          with its forums and wiki. Contributions to both the forums and the
          wiki are warmly encouraged - they are for you, and everyone is welcome there.

------------------------------------------------------------



  Date     :  20200805, Time     :  185300.518
  Time zero on CPU 1             :   0.113370000000000E-01  s.
  Internal wall clock time zero  :           365885580.518  s.

  FHI-aims created a unique identifier for this run for later identification
  aims_uuid : 58855E2C-C930-4582-A90B-4DE241471088

  Using        1 parallel tasks.
  Task        0 on host r18c43.bullx reporting.

  Performing system and environment tests:
  | Environment variable OMP_NUM_THREADS correctly set to 1.
  | Stacksize not measured: no C compiler
  | Checking for scalapack...
  | Testing pdtran()...
  | All pdtran() tests passed.

  Obtaining array dimensions for all initial allocations:
  
  -----------------------------------------------------------------------
  Parsing control.in (first pass over file, find array dimensions only).
  The contents of control.in will be repeated verbatim below
  unless switched off by setting 'verbatim_writeout .false.' .
  in the first line of control.in .
  -----------------------------------------------------------------------
  
  #########################################################################################
  #
  #  Volker Blum, FHI 2009 : Test run input file control.in for simple H2O
  #
  #########################################################################################
  #
  #  Physical model
  #
    xc                 pbe
    vdw_correction_hirshfeld
    spin               none
    relativistic       none
    charge             0.
  #
  #  SCF convergence
  #
    occupation_type    gaussian 0.01
    mixer              pulay
      n_max_pulay        10
      charge_mix_param   0.2
    sc_accuracy_rho    1E-5
    sc_accuracy_eev    1E-3
    sc_accuracy_etot   1E-6
    sc_accuracy_forces 1E-4
    sc_iter_limit      100
  #
  #  Relaxation
  #
  #  relax_geometry   bfgs 1.e-3
  #
  ################################################################################
  #
  #  FHI-aims code project
  #  VB, Fritz-Haber Institut, 2009
  #
  #  Suggested "light" defaults for H atom (to be pasted into control.in file)
  #  Be sure to double-check any results obtained with these settings for post-processing,
  #  e.g., with the "tight" defaults and larger basis sets.
  #
  ################################################################################
    species        H
  #     global species definitions
      nucleus             1
      mass                1.00794
  #
      l_hartree           4
  #
      cut_pot             3.5  1.5  1.0
      basis_dep_cutoff    1e-4
  #
      radial_base         24 5.0
      radial_multiplier   1
      angular_grids       specified
        division   0.2421   50
        division   0.3822  110
        division   0.4799  194
        division   0.5341  302
  #      division   0.5626  434
  #      division   0.5922  590
  #      division   0.6542  770
  #      division   0.6868 1202
  #      outer_grid  770
        outer_grid  302
  ################################################################################
  #
  #  Definition of "minimal" basis
  #
  ################################################################################
  #     valence basis states
      valence      1  s   1.
  #     ion occupancy
      ion_occ      1  s   0.5
  ################################################################################
  #
  #  Suggested additional basis functions. For production calculations,
  #  uncomment them one after another (the most important basis functions are
  #  listed first).
  #
  #  Basis constructed for dimers: 0.5 A, 0.7 A, 1.0 A, 1.5 A, 2.5 A
  #
  ################################################################################
  #  "First tier" - improvements: -1014.90 meV to -62.69 meV
       hydro 2 s 2.1
       hydro 2 p 3.5
  #  "Second tier" - improvements: -12.89 meV to -1.83 meV
  #     hydro 1 s 0.85
  #     hydro 2 p 3.7
  #     hydro 2 s 1.2
  #     hydro 3 d 7
  #  "Third tier" - improvements: -0.25 meV to -0.12 meV
  #     hydro 4 f 11.2
  #     hydro 3 p 4.8
  #     hydro 4 d 9
  #     hydro 3 s 3.2
  ################################################################################
  #
  #  FHI-aims code project
  #  VB, Fritz-Haber Institut, 2009
  #
  #  Suggested "light" defaults for C atom (to be pasted into control.in file)
  #  Be sure to double-check any results obtained with these settings for post-processing,
  #  e.g., with the "tight" defaults and larger basis sets.
  #
  ################################################################################
    species        C
  #     global species definitions
      nucleus             6
      mass                12.0107
  #
      l_hartree           4
  #
      cut_pot             3.5  1.5  1.0
      basis_dep_cutoff    1e-4
  #
      radial_base         34 5.0
      radial_multiplier   1
      angular_grids specified
        division   0.3326   50
        division   0.5710  110
        division   0.7727  194
        division   0.8772  302
  #      division   0.9334  434
  #      division   0.9625  590
  #      division   0.9924  770
  #      division   1.0230  974
  #      division   1.4589 1202
  #     outer_grid  974
       outer_grid 302
  ################################################################################
  #
  #  Definition of "minimal" basis
  #
  ################################################################################
  #     valence basis states
      valence      2  s   2.
      valence      2  p   2.
  #     ion occupancy
      ion_occ      2  s   1.
      ion_occ      2  p   1.
  ################################################################################
  #
  #  Suggested additional basis functions. For production calculations,
  #  uncomment them one after another (the most important basis functions are
  #  listed first).
  #
  #  Constructed for dimers: 1.0 A, 1.25 A, 1.5 A, 2.0 A, 3.0 A
  #
  ################################################################################
  #  "First tier" - improvements: -1214.57 meV to -155.61 meV
       hydro 2 p 1.7
       hydro 3 d 6
       hydro 2 s 4.9
  #  "Second tier" - improvements: -67.75 meV to -5.23 meV
  #     hydro 4 f 9.8
  #     hydro 3 p 5.2
  #     hydro 3 s 4.3
  #     hydro 5 g 14.4
  #     hydro 3 d 6.2
  #  "Third tier" - improvements: -2.43 meV to -0.60 meV
  #     hydro 2 p 5.6
  #     hydro 2 s 1.4
  #     hydro 3 d 4.9
  #     hydro 4 f 11.2
  #  "Fourth tier" - improvements: -0.39 meV to -0.18 meV
  #     hydro 2 p 2.1
  #     hydro 5 g 16.4
  #     hydro 4 d 13.2
  #     hydro 3 s 13.6
  #     hydro 4 f 17.6
  #  Further basis functions - improvements: -0.08 meV and below
  #     hydro 3 s 2
  #     hydro 3 p 6
  #     hydro 4 d 20
  ################################################################################
  #
  #  FHI-aims code project
  #  VB, Fritz-Haber Institut, 2009
  #
  #  Suggested "light" defaults for N atom (to be pasted into control.in file)
  #  Be sure to double-check any results obtained with these settings for post-processing,
  #  e.g., with the "tight" defaults and larger basis sets.
  #
  ################################################################################
    species        N
  #     global species definitions
      nucleus             7
      mass                14.0067
  #
      l_hartree           4
  #
      cut_pot             3.5  1.5  1.0
      basis_dep_cutoff    1e-4
  #
      radial_base         35 5.0
      radial_multiplier   1
      angular_grids       specified
        division   0.2599   50
        division   0.4601  110
        division   0.5885  194
        division   0.6503  302
  #      division   0.6939  434
  #      division   0.7396  590
  #      division   0.7632  770
  #      division   0.8122  974
  #      division   1.1604 1202
  #      outer_grid  974
        outer_grid  302
  ################################################################################
  #
  #  Definition of "minimal" basis
  #
  ################################################################################
  #     valence basis states
      valence      2  s   2.
      valence      2  p   3.
  #     ion occupancy
      ion_occ      2  s   1.
      ion_occ      2  p   2.
  ################################################################################
  #
  #  Suggested additional basis functions. For production calculations,
  #  uncomment them one after another (the most important basis functions are
  #  listed first).
  #
  #  Constructed for dimers: 1.0 A, 1.1 A, 1.5 A, 2.0 A, 3.0 A
  #
  ################################################################################
  #  "First tier" - improvements: -1193.42 meV to -220.60 meV
       hydro 2 p 1.8
       hydro 3 d 6.8
       hydro 3 s 5.8
  #  "Second tier" - improvements: -80.21 meV to -6.86 meV
  #     hydro 4 f 10.8
  #     hydro 3 p 5.8
  #     hydro 1 s 0.8
  #     hydro 5 g 16
  #     hydro 3 d 4.9
  #  "Third tier" - improvements: -4.29 meV to -0.53 meV
  #     hydro 3 s 16
  #     ionic 2 p auto
  #     hydro 3 d 6.6
  #     hydro 4 f 11.6
  #  "Fourth tier" - improvements: -0.75 meV to -0.25 meV
  #     hydro 2 p 4.5
  #     hydro 2 s 2.4
  #     hydro 5 g 14.4
  #     hydro 4 d 14.4
  #     hydro 4 f 16.8
  # Further basis functions - -0.21 meV and below
  #     hydro 3 p 14.8
  #     hydro 3 s 4.4
  #     hydro 3 d 19.6
  #     hydro 5 g 12.8
  ################################################################################
  #
  #  FHI-aims code project
  #  VB, Fritz-Haber Institut, 2009
  #
  #  Suggested "light" defaults for O atom (to be pasted into control.in file)
  #  Be sure to double-check any results obtained with these settings for post-processing,
  #  e.g., with the "tight" defaults and larger basis sets.
  #
  ################################################################################
    species        O
  #     global species definitions
      nucleus             8
      mass                15.9994
  #
      l_hartree           4
  #
      cut_pot             3.5  1.5  1.0
      basis_dep_cutoff    1e-4
  #
      radial_base         36 5.0
      radial_multiplier   1
       angular_grids specified
        division   0.2659   50
        division   0.4451  110
        division   0.6052  194
        division   0.7543  302
  #      division   0.8014  434
  #      division   0.8507  590
  #      division   0.8762  770
  #      division   0.9023  974
  #      division   1.2339 1202
  #      outer_grid 974
        outer_grid 302
  ################################################################################
  #
  #  Definition of "minimal" basis
  #
  ################################################################################
  #     valence basis states
      valence      2  s   2.
      valence      2  p   4.
  #     ion occupancy
      ion_occ      2  s   1.
      ion_occ      2  p   3.
  ################################################################################
  #
  #  Suggested additional basis functions. For production calculations,
  #  uncomment them one after another (the most important basis functions are
  #  listed first).
  #
  #  Constructed for dimers: 1.0 A, 1.208 A, 1.5 A, 2.0 A, 3.0 A
  #
  ################################################################################
  #  "First tier" - improvements: -699.05 meV to -159.38 meV
       hydro 2 p 1.8
       hydro 3 d 7.6
       hydro 3 s 6.4
  #  "Second tier" - improvements: -49.91 meV to -5.39 meV
  #     hydro 4 f 11.6
  #     hydro 3 p 6.2
  #     hydro 3 d 5.6
  #     hydro 5 g 17.6
  #     hydro 1 s 0.75
  #  "Third tier" - improvements: -2.83 meV to -0.50 meV
  #     ionic 2 p auto
  #     hydro 4 f 10.8
  #     hydro 4 d 4.7
  #     hydro 2 s 6.8
  #  "Fourth tier" - improvements: -0.40 meV to -0.12 meV
  #     hydro 3 p 5
  #     hydro 3 s 3.3
  #     hydro 5 g 15.6
  #     hydro 4 f 17.6
  #     hydro 4 d 14
  # Further basis functions - -0.08 meV and below
  #     hydro 3 s 2.1
  #     hydro 4 d 11.6
  #     hydro 3 p 16
  #     hydro 2 s 17.2
  
  -----------------------------------------------------------------------
  Completed first pass over input file control.in .
  -----------------------------------------------------------------------
  
  
  -----------------------------------------------------------------------
  Parsing geometry.in (first pass over file, find array dimensions only).
  The contents of geometry.in will be repeated verbatim below
  unless switched off by setting 'verbatim_writeout .false.' .
  in the first line of geometry.in .
  -----------------------------------------------------------------------
  
  atom  0.00000 0.00000 0.00000 C
  atom  1.09300 0.00000 0.00000 H
  atom  -0.47961 0.00000 -1.41207 N
  atom  -1.49856 -0.05973 -1.41142 H
  atom  -0.17804 0.86302 -1.85970 H
  atom  -0.49584 1.26211 0.72868 C
  atom  -1.58789 1.28919 0.74431 H
  atom  -0.13407 1.27425 1.75947 H
  atom  -0.13407 2.16087 0.22380 H
  atom  -0.39425 -1.28861 0.74398 C
  atom  -0.10189 -1.56493 1.88303 O
  atom  -1.10210 -2.13717 0.06896 O
  atom  -0.43532 -2.38186 -0.59475 H
  
  -----------------------------------------------------------------------
  Completed first pass over input file geometry.in .
  -----------------------------------------------------------------------
  

  Basic array size parameters:
  | Number of species                 :        4
  | Number of atoms                   :       13
  | Max. basis fn. angular momentum   :        2
  | Max. atomic/ionic basis occupied n:        2
  | Max. number of basis fn. types    :        2
  | Max. radial fns per species/type  :        3
  | Max. logarithmic grid size        :     1301
  | Max. radial integration grid size :       36
  | Max. angular integration grid size:      302
  | Max. angular grid division number :        8
  | Radial grid for Hartree potential :     1301
  | Number of spin channels           :        1

------------------------------------------------------------
          Reading file control.in.
------------------------------------------------------------
  XC: Using PBE gradient-corrected functionals.
  Spin treatment: No spin polarisation.
  Non-relativistic treatment of kinetic energy.
  Charge =   0.000000E+00: Neutral system requested explicitly.
  Occupation type: Gaussian broadening, width =   0.100000E-01 eV.
  Using pulay charge density mixing.
  Pulay mixing - number of memorized iterations:   10
  Charge density mixing - mixing parameter:     0.2000
  Convergence accuracy of self-consistent charge density:  0.1000E-04
  Convergence accuracy of sum of eigenvalues:  0.1000E-02
  Convergence accuracy of total energy:  0.1000E-05
  Convergence accuracy of forces:  0.1000E-03
  Maximum number of s.-c. iterations  :   100
 
  Reading configuration options for species H                   .
  | Found nuclear charge :   1.0000
  | Found atomic mass :    1.00794000000000      amu
  | Found l_max for Hartree potential  :   4
  | Found cutoff potl. onset [A], width [A], scale factor :    3.50000    1.50000    1.00000
  | Threshold for basis-dependent cutoff potential is   0.100000E-03
  | Found data for basic radial integration grid :    24 points, outermost radius =    5.000 A
  | Found multiplier for basic radial grid :   1
  | Found angular grid specification: user-specified.
  | Specified grid contains     5 separate shells.
  | Check grid settings after all constraints further below.
  | Found free-atom valence shell :  1 s   1.000
  | No ionic wave fns used. Skipping ion_occ.
  | Found hydrogenic basis function :  2 s   2.100
  | Found hydrogenic basis function :  2 p   3.500
  Species H                   : Missing cutoff potential type.
  Defaulting to exp(1/x)/(1-x)^2 type cutoff potential.
  Species H : No 'logarithmic' tag. Using default grid for free atom:
  | Default logarithmic grid data [bohr] : 0.1000E-03 0.1000E+03 0.1012E+01
  Species H : On-site basis accuracy parameter (for Gram-Schmidt orthonormalisation) not specified.
  Using default value basis_acc =  0.1000000E-03.
  Species H                   : Using default innermost maximum threshold i_radial=  2 for radial functions.
  Species H                   : Default cutoff onset for free atom density etc. : 0.35000000E+01 AA.
  Species H                   : Basic radial grid will be enhanced according to radial_multiplier =   1, to contain    24 grid points.
 
  Reading configuration options for species C                   .
  | Found nuclear charge :   6.0000
  | Found atomic mass :    12.0107000000000      amu
  | Found l_max for Hartree potential  :   4
  | Found cutoff potl. onset [A], width [A], scale factor :    3.50000    1.50000    1.00000
  | Threshold for basis-dependent cutoff potential is   0.100000E-03
  | Found data for basic radial integration grid :    34 points, outermost radius =    5.000 A
  | Found multiplier for basic radial grid :   1
  | Found angular grid specification: user-specified.
  | Specified grid contains     5 separate shells.
  | Check grid settings after all constraints further below.
  | Found free-atom valence shell :  2 s   2.000
  | Found free-atom valence shell :  2 p   2.000
  | No ionic wave fns used. Skipping ion_occ.
  | No ionic wave fns used. Skipping ion_occ.
  | Found hydrogenic basis function :  2 p   1.700
  | Found hydrogenic basis function :  3 d   6.000
  | Found hydrogenic basis function :  2 s   4.900
  Species C                   : Missing cutoff potential type.
  Defaulting to exp(1/x)/(1-x)^2 type cutoff potential.
  Species C : No 'logarithmic' tag. Using default grid for free atom:
  | Default logarithmic grid data [bohr] : 0.1000E-03 0.1000E+03 0.1012E+01
  Species C : On-site basis accuracy parameter (for Gram-Schmidt orthonormalisation) not specified.
  Using default value basis_acc =  0.1000000E-03.
  Species C                   : Using default innermost maximum threshold i_radial=  2 for radial functions.
  Species C                   : Default cutoff onset for free atom density etc. : 0.35000000E+01 AA.
  Species C                   : Basic radial grid will be enhanced according to radial_multiplier =   1, to contain    34 grid points.
 
  Reading configuration options for species N                   .
  | Found nuclear charge :   7.0000
  | Found atomic mass :    14.0067000000000      amu
  | Found l_max for Hartree potential  :   4
  | Found cutoff potl. onset [A], width [A], scale factor :    3.50000    1.50000    1.00000
  | Threshold for basis-dependent cutoff potential is   0.100000E-03
  | Found data for basic radial integration grid :    35 points, outermost radius =    5.000 A
  | Found multiplier for basic radial grid :   1
  | Found angular grid specification: user-specified.
  | Specified grid contains     5 separate shells.
  | Check grid settings after all constraints further below.
  | Found free-atom valence shell :  2 s   2.000
  | Found free-atom valence shell :  2 p   3.000
  | No ionic wave fns used. Skipping ion_occ.
  | No ionic wave fns used. Skipping ion_occ.
  | Found hydrogenic basis function :  2 p   1.800
  | Found hydrogenic basis function :  3 d   6.800
  | Found hydrogenic basis function :  3 s   5.800
  Species N                   : Missing cutoff potential type.
  Defaulting to exp(1/x)/(1-x)^2 type cutoff potential.
  Species N : No 'logarithmic' tag. Using default grid for free atom:
  | Default logarithmic grid data [bohr] : 0.1000E-03 0.1000E+03 0.1012E+01
  Species N : On-site basis accuracy parameter (for Gram-Schmidt orthonormalisation) not specified.
  Using default value basis_acc =  0.1000000E-03.
  Species N                   : Using default innermost maximum threshold i_radial=  2 for radial functions.
  Species N                   : Default cutoff onset for free atom density etc. : 0.35000000E+01 AA.
  Species N                   : Basic radial grid will be enhanced according to radial_multiplier =   1, to contain    35 grid points.
 
  Reading configuration options for species O                   .
  | Found nuclear charge :   8.0000
  | Found atomic mass :    15.9994000000000      amu
  | Found l_max for Hartree potential  :   4
  | Found cutoff potl. onset [A], width [A], scale factor :    3.50000    1.50000    1.00000
  | Threshold for basis-dependent cutoff potential is   0.100000E-03
  | Found data for basic radial integration grid :    36 points, outermost radius =    5.000 A
  | Found multiplier for basic radial grid :   1
  | Found angular grid specification: user-specified.
  | Specified grid contains     5 separate shells.
  | Check grid settings after all constraints further below.
  | Found free-atom valence shell :  2 s   2.000
  | Found free-atom valence shell :  2 p   4.000
  | No ionic wave fns used. Skipping ion_occ.
  | No ionic wave fns used. Skipping ion_occ.
  | Found hydrogenic basis function :  2 p   1.800
  | Found hydrogenic basis function :  3 d   7.600
  | Found hydrogenic basis function :  3 s   6.400
  Species O                   : Missing cutoff potential type.
  Defaulting to exp(1/x)/(1-x)^2 type cutoff potential.
  Species O : No 'logarithmic' tag. Using default grid for free atom:
  | Default logarithmic grid data [bohr] : 0.1000E-03 0.1000E+03 0.1012E+01
  Species O : On-site basis accuracy parameter (for Gram-Schmidt orthonormalisation) not specified.
  Using default value basis_acc =  0.1000000E-03.
  Species O                   : Using default innermost maximum threshold i_radial=  2 for radial functions.
  Species O                   : Default cutoff onset for free atom density etc. : 0.35000000E+01 AA.
  Species O                   : Basic radial grid will be enhanced according to radial_multiplier =   1, to contain    36 grid points.
 
  Finished reading input file 'control.in'. Consistency checks are next.
 
  MPI_IN_PLACE appears to work with this MPI implementation.
  | Keeping use_mpi_in_place .true. (see manual).
  Target number of points in a grid batch is not set. Defaulting to  100
  Method for grid partitioning is not set. Defaulting to parallel hash+maxmin partitioning.
  Batch size limit is not set. Defaulting to    200
  By default, will store active basis functions for each batch.
  If in need of memory, prune_basis_once .false. can be used to disable this option.
  communication_type for Hartree potential was not specified.
  Defaulting to calc_hartree .
  Pulay mixer: Number of initial linear mixing iterations not set.
  Defaulting to    0 iterations.
  Work space size for distributed Hartree potential not set.
  Defaulting to   0.200000E+03 MB.
  Algorithm-dependent basis array size parameters:
  | n_max_pulay                         :       10
  Presetting      1001 iterations before the initial mixing cycle
  is restarted anyway using the sc_init_iter criterion / keyword.
  Presetting a factor      1.000 between actual scf density residual
  and density convergence criterion sc_accuracy_rho below which sc_init_iter
  takes no effect.
  Geometry relaxation not requested: no relaxation will be performed.
  Handling of forces: Unphysical translation and rotation will be removed from forces.
  No accuracy limit for integral partition fn. given. Defaulting to  0.1000E-14.
  No threshold value for u(r) in integrations given. Defaulting to  0.1000E-05.
  No accuracy for occupation numbers given. Defaulting to  0.1000E-12.
  No threshold value for occupation numbers given. Defaulting to  0.0000E+00.
  No accuracy for fermi level given. Defaulting to  0.1000E-19.
  Maximum # of iterations to find E_F not set. Defaulting to  200.
  Preferred method for the eigenvalue solver ('KS_method') not specified in 'control.in'.
  Defaulting to serial version, 'lapack_fast'.
  Will not use alltoall communication since running on < 1024 CPUs.
  Threshold for basis singularities not set.
  Default threshold for basis singularities:  0.1000E-04
  partition_type (choice of integration weights) for integrals was not specified.
  | Using a version of the partition function of Stratmann and coworkers ('stratmann_smoother').
  | At each grid point, the set of atoms used to build the partition table is smoothly restricted to
  | only those atoms whose free-atom density would be non-zero at that grid point.
  Partitioning for Hartree potential was not defined. Using partition_type for integrals.
  | Adjusted default value of keyword multip_moments_threshold to:       0.10000000E-11
  | This value may affect high angular momentum components of the Hartree potential in periodic systems.
  No q(lm)/r^(l+1) cutoff set for long-range Hartree potential.
  | Using default value of  0.100000E-09 .
  | Verify using the multipole_threshold keyword.
  Defaulting to new monopole extrapolation.
  Density update method: automatic selection selected.
------------------------------------------------------------


------------------------------------------------------------
          Reading geometry description geometry.in.
------------------------------------------------------------
  Input structure read successfully.
  The structure contains       13 atoms,  and a total of         48.000 electrons.

  Input geometry:
  | No unit cell requested.
  | Atomic structure:
  |       Atom                x [A]            y [A]            z [A]
  |    1: Species C             0.00000000        0.00000000        0.00000000
  |    2: Species H             1.09300000        0.00000000        0.00000000
  |    3: Species N            -0.47961000        0.00000000       -1.41207000
  |    4: Species H            -1.49856000       -0.05973000       -1.41142000
  |    5: Species H            -0.17804000        0.86302000       -1.85970000
  |    6: Species C            -0.49584000        1.26211000        0.72868000
  |    7: Species H            -1.58789000        1.28919000        0.74431000
  |    8: Species H            -0.13407000        1.27425000        1.75947000
  |    9: Species H            -0.13407000        2.16087000        0.22380000
  |   10: Species C            -0.39425000       -1.28861000        0.74398000
  |   11: Species O            -0.10189000       -1.56493000        1.88303000
  |   12: Species O            -1.10210000       -2.13717000        0.06896000
  |   13: Species H            -0.43532000       -2.38186000       -0.59475000
  |

  | The smallest distance between any two atoms is         0.97210068 AA.
  |
  | The first atom of this pair is atom number                     12 .
  | The second atom of this pair is atom number                    13 .

  Number of empty states per atom not set in control.in - providing a guess from actual geometry.
  | Total number of empty states used during s.c.f. cycle:       29
  If you use a very high smearing, use empty_states (per atom!) in control.in to increase this value.

  Structure-dependent array size parameters: 
  | Maximum number of distinct radial functions  :       21
  | Maximum number of basis functions            :      119
  | Number of Kohn-Sham states (occupied + empty):       53
------------------------------------------------------------

------------------------------------------------------------
          Preparing all fixed parts of the calculation.
------------------------------------------------------------
  Determining machine precision:
    2.225073858507201E-308
  Setting up grids for atomic and cluster calculations.

  Creating wave function, potential, and density for free atoms.

  Species: H

  List of occupied orbitals and eigenvalues:
    n    l              occ      energy [Ha]    energy [eV]
    1    0           1.0000        -0.237589        -6.4651


  Species: C

  List of occupied orbitals and eigenvalues:
    n    l              occ      energy [Ha]    energy [eV]
    1    0           2.0000       -10.038835      -273.1706
    2    0           2.0000        -0.502696       -13.6791
    2    1           2.0000        -0.191971        -5.2238


  Species: N

  List of occupied orbitals and eigenvalues:
    n    l              occ      energy [Ha]    energy [eV]
    1    0           2.0000       -14.128000      -384.4424
    2    0           2.0000        -0.681077       -18.5330
    2    1           3.0000        -0.259788        -7.0692


  Species: O

  List of occupied orbitals and eigenvalues:
    n    l              occ      energy [Ha]    energy [eV]
    1    0           2.0000       -18.898188      -514.2459
    2    0           2.0000        -0.878505       -23.9053
    2    1           4.0000        -0.331779        -9.0282

  Creating fixed part of basis set: Ionic, confined, hydrogenic.
 
  H                    hydrogenic:
 
  List of hydrogenic basis orbitals: 
    n    l      effective z      eigenvalue [eV]  inner max. [A]     outer max. [A]     outer radius [A]   
    2    0         2.100000       -14.9728           0.193243           1.317208           4.583499
    2    1         3.500000       -41.6669           0.602369           0.602369           3.723403
 
 
  C                    hydrogenic:
 
  List of hydrogenic basis orbitals: 
    n    l      effective z      eigenvalue [eV]  inner max. [A]     outer max. [A]     outer radius [A]   
    2    1         1.700000        -9.7616           1.230570           1.230570           4.607917
    3    2         6.000000       -54.4224           0.792453           0.792453           3.883070
    2    0         4.900000       -81.6679           0.082559           0.562749           3.078220
 
 
  N                    hydrogenic:
 
  List of hydrogenic basis orbitals: 
    n    l      effective z      eigenvalue [eV]  inner max. [A]     outer max. [A]     outer radius [A]   
    2    1         1.800000       -10.9749           1.177451           1.177451           4.573712
    3    2         6.800000       -69.9026           0.704619           0.704619           3.538137
    3    0         5.800000       -50.8545           0.067388           1.191934           4.250239
 
 
  O                    hydrogenic:
 
  List of hydrogenic basis orbitals: 
    n    l      effective z      eigenvalue [eV]  inner max. [A]     outer max. [A]     outer radius [A]   
    2    1         1.800000       -10.9749           1.164242           1.164242           4.578029
    3    2         7.600000       -87.3180           0.624125           0.624125           3.251020
    3    0         6.400000       -61.9207           0.061167           1.081902           4.001998
 

  Adding cutoff potential to free-atom effective potential.
  Creating atomic-like basis functions for current effective potential.

  Species H                   :

  List of atomic basis orbitals and eigenvalues:
    n    l      energy [Ha]    energy [eV]    outer radius [A]
    1    0        -0.237589        -6.4651       4.527807


  Species C                   :

  List of atomic basis orbitals and eigenvalues:
    n    l      energy [Ha]    energy [eV]    outer radius [A]
    1    0       -10.038835      -273.1706       1.934409
    2    0        -0.502696       -13.6791       4.496620
    2    1        -0.191971        -5.2238       4.551928


  Species N                   :

  List of atomic basis orbitals and eigenvalues:
    n    l      energy [Ha]    energy [eV]    outer radius [A]
    1    0       -14.128000      -384.4424       1.637919
    2    0        -0.681077       -18.5330       4.463241
    2    1        -0.259788        -7.0692       4.518138


  Species O                   :

  List of atomic basis orbitals and eigenvalues:
    n    l      energy [Ha]    energy [eV]    outer radius [A]
    1    0       -18.898188      -514.2459       1.415765
    2    0        -0.878505       -23.9053       4.413171
    2    1        -0.331779        -9.0282       4.522403

  Assembling full basis from fixed parts.
  | Species H :   atomic orbital   1 s accepted.
  | Species H :    hydro orbital   2 s accepted.
  | Species H :    hydro orbital   2 p accepted.
  | Species C :   atomic orbital   1 s accepted.
  | Species C :    hydro orbital   2 s accepted.
  | Species C :   atomic orbital   2 s accepted.
  | Species C :   atomic orbital   2 p accepted.
  | Species C :    hydro orbital   2 p accepted.
  | Species C :    hydro orbital   3 d accepted.
  | Species N :   atomic orbital   1 s accepted.
  | Species N :    hydro orbital   3 s accepted.
  | Species N :   atomic orbital   2 s accepted.
  | Species N :   atomic orbital   2 p accepted.
  | Species N :    hydro orbital   2 p accepted.
  | Species N :    hydro orbital   3 d accepted.
  | Species O :   atomic orbital   1 s accepted.
  | Species O :    hydro orbital   3 s accepted.
  | Species O :   atomic orbital   2 s accepted.
  | Species O :   atomic orbital   2 p accepted.
  | Species O :    hydro orbital   2 p accepted.
  | Species O :    hydro orbital   3 d accepted.
 
  Basis size parameters after reduction:
  | Total number of radial functions:       21
  | Total number of basis functions :      119
 
  Per-task memory consumption for arrays in subroutine allocate_ext:
  |           5.250512MB.
  Testing on-site integration grid accuracy.
  |  Species  Function  <phi|h_atom|phi> (log., in eV)  <phi|h_atom|phi> (rad., in eV)
           1        1                 -6.4663192853                 -6.4651273558
           1        2                 13.7111246313                 13.7170609718
           1        3                 25.2673269279                 25.2674696378
           2        4               -273.1705927641               -273.1705631568
           2        5                -10.7109323383                -10.7107120029
           2        6                 17.4381822266                 17.4352413244
           2        7                 -5.2255326521                 -5.2270484734
           2        8                  8.6835629259                  8.6603288385
           2        9                 27.4952418996                 27.4953360207
           3       10               -384.4424306495               -384.4423701208
           3       11                 12.5842251816                 12.5842222903
           3       12                -15.7264628251                -15.7264433455
           3       13                 -7.0696854293                 -7.0701769954
           3       14                  8.8090390882                  8.7901077751
           3       15                 35.9586762123                 35.9588528632
           4       16               -514.2458688638               -514.2457643834
           4       17                 15.1795651126                 15.1795290741
           4       18                -21.5359799773                -21.5360846186
           4       19                 -9.0283069236                 -9.0284644067
           4       20                  8.3027758564                  8.2834874195
           4       21                 45.8339351984                 45.8338762259

  Preparing densities etc. for the partition functions (integrals / Hartree potential).

  Preparations completed.
  max(cpu_time)          :      0.147 s.
  Wall clock time (cpu1) :      0.149 s.
------------------------------------------------------------

------------------------------------------------------------
          Begin self-consistency loop: Initialization.

          Date     :  20200805, Time     :  185300.681
------------------------------------------------------------

  Initializing index lists of integration centers etc. from given atomic structure:
  | Number of centers in hartree potential         :        13
  | Number of centers in hartree multipole         :        13
  | Number of centers in electron density summation:        13
  | Number of centers in basis integrals           :        13
  | Number of centers in integrals                 :        13
  | Number of centers in hamiltonian               :        13
  Partitioning the integration grid into batches with parallel hashing+maxmin method.
  | Number of batches:      960
  | Maximal batch size:     138
  | Minimal batch size:      66
  | Average batch size:      72.548
  | Standard deviation of batch sizes:      16.968

  Integration load balanced across     1 MPI tasks.
  Work distribution over tasks is as follows:
  Task     0 has      69646 integration points.
  Initializing partition tables, free-atom densities, potentials, etc. across the integration grid (initialize_grid_storage).
  | initialize_grid_storage: Actual outermost partition radius vs. multipole_radius_free
  | (-- VB: in principle, multipole_radius_free should be larger, hence this output)
  | Species        1: Confinement radius =              4.999999999999999 AA, multipole_radius_free =              5.054417573612229 AA.
  | Species        1: outer_partition_radius set to              5.054417573612229 AA .
  | Species        2: Confinement radius =              4.999999999999999 AA, multipole_radius_free =              5.019602836301480 AA.
  | Species        2: outer_partition_radius set to              5.019602836301480 AA .
  | Species        3: Confinement radius =              4.999999999999999 AA, multipole_radius_free =              5.043624274424571 AA.
  | Species        3: outer_partition_radius set to              5.043624274424571 AA .
  | Species        4: Confinement radius =              4.999999999999999 AA, multipole_radius_free =              5.048384829883283 AA.
  | Species        4: outer_partition_radius set to              5.048384829883283 AA .
  | Original list of interatomic distances with          13 x         13 entries is created.
  | Net number of integration points:    69646
  | of which are non-zero points    :    59413
  Renormalizing the initial density to the exact electron count on the 3D integration grid.
  | Initial density: Formal number of electrons (from input files) :      48.0000000000
  | Integrated number of electrons on 3D grid     :      47.9999350890
  | Charge integration error                      :      -0.0000649110
  | Normalization factor for density and gradient :       1.0000013523
  Obtaining max. number of non-zero basis functions in each batch (get_n_compute_maxes).
  | Maximal number of non-zero basis functions:      119 in task     0
  Selecting the method for density update.
  Loop over occupied states selected for charge density update.
  Allocating        0.050 MB for KS_eigenvector
  Integrating Hamiltonian matrix: batch-based integration.
  Time summed over all CPUs for integration: real work        0.495 s, elapsed        0.495 s
  Integrating overlap matrix.
  Time summed over all CPUs for integration: real work        0.213 s, elapsed        0.213 s

  Updating Kohn-Sham eigenvalues and eigenvectors using ELSI and the ELPA eigensolver.
  Overlap matrix is nonsingular
  | Lowest eigenvalue of overlap  :  0.55E-02
  | Highest eigenvalue of overlap :  0.62E+01
  Finished singularity check of overlap matrix
  | Time :     0.002 s
  Finished Cholesky decomposition
  | Time :     0.000 s
  Finished transformation to standard eigenproblem
  | Time :     0.000 s
  Starting LAPACK eigensolver
  Finished solving standard eigenproblem
  | Time :     0.002 s
  Finished back-transformation of eigenvectors
  | Time :     0.000 s

  Obtaining occupation numbers and chemical potential using ELSI.
  | Chemical potential (Fermi level):    -8.99437221eV
  Writing Kohn-Sham eigenvalues.

  State    Occupation    Eigenvalue [Ha]    Eigenvalue [eV]
      1       2.00000         -19.007639         -517.22417
      2       2.00000         -18.977197         -516.39580
      3       2.00000         -14.245996         -387.65328
      4       2.00000         -10.166790         -276.65244
      5       2.00000         -10.141457         -275.96307
      6       2.00000         -10.131959         -275.70464
      7       2.00000          -1.182297          -32.17194
      8       2.00000          -1.098811          -29.90016
      9       2.00000          -0.991972          -26.99293
     10       2.00000          -0.858316          -23.35597
     11       2.00000          -0.756404          -20.58281
     12       2.00000          -0.682358          -18.56792
     13       2.00000          -0.634485          -17.26522
     14       2.00000          -0.601266          -16.36129
     15       2.00000          -0.580028          -15.78337
     16       2.00000          -0.563413          -15.33125
     17       2.00000          -0.555628          -15.11942
     18       2.00000          -0.539400          -14.67783
     19       2.00000          -0.522329          -14.21329
     20       2.00000          -0.500104          -13.60853
     21       2.00000          -0.458232          -12.46913
     22       2.00000          -0.425006          -11.56501
     23       2.00000          -0.403151          -10.97029
     24       2.00000          -0.390666          -10.63056
     25       0.00000          -0.160115           -4.35695
     26       0.00000          -0.063700           -1.73337
     27       0.00000          -0.026650           -0.72520
     28       0.00000          -0.022690           -0.61744
     29       0.00000          -0.006547           -0.17816
     30       0.00000           0.007275            0.19795
     31       0.00000           0.026607            0.72400
     32       0.00000           0.043803            1.19195
     33       0.00000           0.047553            1.29399
     34       0.00000           0.053120            1.44546
     35       0.00000           0.073061            1.98809
     36       0.00000           0.133093            3.62165
     37       0.00000           0.158171            4.30404
     38       0.00000           0.203064            5.52565
     39       0.00000           0.218750            5.95249
     40       0.00000           0.227697            6.19595
     41       0.00000           0.254788            6.93315
     42       0.00000           0.272369            7.41154
     43       0.00000           0.281480            7.65945
     44       0.00000           0.312895            8.51431
     45       0.00000           0.329747            8.97287
     46       0.00000           0.346657            9.43302
     47       0.00000           0.358872            9.76540
     48       0.00000           0.371640           10.11285
     49       0.00000           0.450522           12.25934
     50       0.00000           0.476513           12.96657
     51       0.00000           0.516080           14.04326
     52       0.00000           0.541347           14.73080
     53       0.00000           0.588009           16.00054

  Highest occupied state (VBM) at    -10.63056411 eV
  | Occupation number:      2.00000000

  Lowest unoccupied state (CBM) at    -4.35694612 eV
  | Occupation number:      0.00000000

  Overall HOMO-LUMO gap:      6.27361799 eV.
  Calculating total energy contributions from superposition of free atom densities.

  Total energy components:
  | Sum of eigenvalues            :        -188.82981356 Ha       -5138.32066186 eV
  | XC energy correction          :         -41.78742212 Ha       -1137.09361060 eV
  | XC potential correction       :          53.71836580 Ha        1461.75110650 eV
  | Free-atom electrostatic energy:        -146.86088931 Ha       -3996.28812700 eV
  | Hartree energy correction     :           0.00000000 Ha           0.00000000 eV
  | vdW energy correction         :           0.00000000 Ha           0.00000000 eV
  | Entropy correction            :           0.00000000 Ha           0.00000000 eV
  | ---------------------------
  | Total energy                  :        -323.75975919 Ha       -8809.95129296 eV
  | Total energy, T -> 0          :        -323.75975919 Ha       -8809.95129296 eV  <-- do not rely on this value for anything but (periodic) metals
  | Electronic free energy        :        -323.75975919 Ha       -8809.95129296 eV

  Derived energy quantities:
  | Kinetic energy                :         320.49334024 Ha        8721.06751094 eV
  | Electrostatic energy          :        -602.46567731 Ha      -16393.92519330 eV
  | Energy correction for multipole
  | error in Hartree potential    :           0.00000000 Ha           0.00000000 eV
  | Sum of eigenvalues per atom                           :        -395.25543553 eV
  | Total energy (T->0) per atom                          :        -677.68856100 eV  <-- do not rely on this value for anything but (periodic) metals
  | Electronic free energy per atom                       :        -677.68856100 eV
  Initialize hartree_potential_storage
  Max. number of atoms included in rho_multipole:           13

  End scf initialization - timings             :  max(cpu_time)    wall_clock(cpu1)
  | Time for scf. initialization               :        1.154 s           1.155 s
  | Boundary condition initialization          :        0.000 s           0.000 s
  | Integration                                :        0.709 s           0.709 s
  | Solution of K.-S. eqns.                    :        0.004 s           0.005 s
  | Grid partitioning                          :        0.112 s           0.112 s
  | Preloading free-atom quantities on grid    :        0.002 s           0.003 s
  | Free-atom superposition energy             :        0.085 s           0.084 s
  | Total energy evaluation                    :        0.000 s           0.000 s

  Partial memory accounting:
  | Current value for overall tracked memory usage on task 0  :           0.165 MB
  | Peak value for overall tracked memory usage on task 0     :           0.676 MB after allocating wave
  | Largest tracked array allocation on task 0 so far         :           0.131 MB  when allocating H_times_psi
  Note:  These values currently only include a subset of arrays which are explicitly tracked.
  The "true" memory usage will be greater.
------------------------------------------------------------

------------------------------------------------------------
          Begin self-consistency iteration #    1

  Date     :  20200805, Time     :  185301.836
------------------------------------------------------------
  Evaluating new KS density.
  Integration grid: deviation in total charge (<rho> - N_e) =  -1.421085E-14
  Pulay mixing of updated and previous charge densities.

  Evaluating partitioned Hartree potential by multipole expansion.
  | Analytical far-field extrapolation by fixed multipoles:
  | Hartree multipole sum: apparent total charge =  -0.171971E-03
  Summing up the Hartree potential.
  Time summed over all CPUs for potential: real work        0.281 s, elapsed        0.281 s
  | RMS charge density error from multipole expansion :   0.590601E-02

  Integrating Hamiltonian matrix: batch-based integration.
  Time summed over all CPUs for integration: real work        0.493 s, elapsed        0.493 s

  Updating Kohn-Sham eigenvalues and eigenvectors using ELSI and the ELPA eigensolver.
  Finished Cholesky decomposition
  | Time :     0.000 s
  Finished transformation to standard eigenproblem
  | Time :     0.000 s
  Starting LAPACK eigensolver
  Finished solving standard eigenproblem
  | Time :     0.002 s
  Finished back-transformation of eigenvectors
  | Time :     0.000 s

  Obtaining occupation numbers and chemical potential using ELSI.
  | Chemical potential (Fermi level):    -7.92900207eV
  Writing Kohn-Sham eigenvalues.

  State    Occupation    Eigenvalue [Ha]    Eigenvalue [eV]
      1       2.00000         -18.896336         -514.19547
      2       2.00000         -18.837119         -512.58409
      3       2.00000         -14.100712         -383.69988
      4       2.00000         -10.116701         -275.28945
      5       2.00000         -10.064967         -273.88169
      6       2.00000         -10.032140         -272.98841
      7       2.00000          -1.130562          -30.76416
      8       2.00000          -1.034465          -28.14923
      9       2.00000          -0.924574          -25.15894
     10       2.00000          -0.793708          -21.59788
     11       2.00000          -0.704679          -19.17530
     12       2.00000          -0.636745          -17.32671
     13       2.00000          -0.581518          -15.82392
     14       2.00000          -0.540903          -14.71871
     15       2.00000          -0.525421          -14.29742
     16       2.00000          -0.498346          -13.56068
     17       2.00000          -0.496658          -13.51474
     18       2.00000          -0.475546          -12.94028
     19       2.00000          -0.463832          -12.62151
     20       2.00000          -0.444551          -12.09686
     21       2.00000          -0.397966          -10.82922
     22       2.00000          -0.367474           -9.99947
     23       2.00000          -0.331078           -9.00910
     24       2.00000          -0.317559           -8.64121
     25       0.00000          -0.123636           -3.36430
     26       0.00000          -0.040048           -1.08976
     27       0.00000          -0.002873           -0.07817
     28       0.00000           0.015298            0.41627
     29       0.00000           0.022650            0.61634
     30       0.00000           0.044378            1.20759
     31       0.00000           0.059022            1.60608
     32       0.00000           0.081246            2.21082
     33       0.00000           0.089271            2.42919
     34       0.00000           0.093191            2.53585
     35       0.00000           0.112207            3.05332
     36       0.00000           0.162496            4.42174
     37       0.00000           0.182430            4.96416
     38       0.00000           0.230920            6.28365
     39       0.00000           0.252233            6.86362
     40       0.00000           0.261220            7.10815
     41       0.00000           0.292388            7.95630
     42       0.00000           0.304597            8.28851
     43       0.00000           0.314633            8.56159
     44       0.00000           0.346857            9.43846
     45       0.00000           0.369277           10.04855
     46       0.00000           0.383554           10.43703
     47       0.00000           0.394657           10.73916
     48       0.00000           0.415842           11.31564
     49       0.00000           0.488165           13.28366
     50       0.00000           0.512200           13.93767
     51       0.00000           0.550718           14.98580
     52       0.00000           0.575992           15.67355
     53       0.00000           0.623612           16.96935

  Highest occupied state (VBM) at     -8.64120912 eV
  | Occupation number:      2.00000000

  Lowest unoccupied state (CBM) at    -3.36430250 eV
  | Occupation number:      0.00000000

  Overall HOMO-LUMO gap:      5.27690661 eV.

  Total energy components:
  | Sum of eigenvalues            :        -185.42712259 Ha       -5045.72872947 eV
  | XC energy correction          :         -42.11680823 Ha       -1146.05666254 eV
  | XC potential correction       :          54.14677778 Ha        1473.40878953 eV
  | Free-atom electrostatic energy:        -146.86088931 Ha       -3996.28812700 eV
  | Hartree energy correction     :          -3.31895421 Ha         -90.31333902 eV
  | vdW energy correction         :           0.00000000 Ha           0.00000000 eV
  | Entropy correction            :           0.00000000 Ha           0.00000000 eV
  | ---------------------------
  | Total energy                  :        -323.57699655 Ha       -8804.97806850 eV
  | Total energy, T -> 0          :        -323.57699655 Ha       -8804.97806850 eV  <-- do not rely on this value for anything but (periodic) metals
  | Electronic free energy        :        -323.57699655 Ha       -8804.97806850 eV

  Derived energy quantities:
  | Kinetic energy                :         322.29021644 Ha        8769.96300016 eV
  | Electrostatic energy          :        -603.75040477 Ha      -16428.88440613 eV
  | Energy correction for multipole
  | error in Hartree potential    :           0.01166838 Ha           0.31751266 eV
  | Sum of eigenvalues per atom                           :        -388.13297919 eV
  | Total energy (T->0) per atom                          :        -677.30600527 eV  <-- do not rely on this value for anything but (periodic) metals
  | Electronic free energy per atom                       :        -677.30600527 eV

  Self-consistency convergence accuracy:
  | Change of charge density      :  0.5873E+00
  | Change of sum of eigenvalues  :  0.9259E+02 eV
  | Change of total energy        :  0.4973E+01 eV

  End self-consistency iteration #     1       :  max(cpu_time)    wall_clock(cpu1)
  | Time for this iteration                    :        1.185 s           1.186 s
  | Charge density update                      :        0.393 s           0.394 s
  | Density mixing                             :        0.005 s           0.005 s
  | Hartree multipole update                   :        0.009 s           0.008 s
  | Hartree multipole summation                :        0.282 s           0.283 s
  | Integration                                :        0.493 s           0.492 s
  | Solution of K.-S. eqns.                    :        0.002 s           0.003 s
  | Total energy evaluation                    :        0.000 s           0.000 s

  Partial memory accounting:
  | Current value for overall tracked memory usage on task 0  :           0.165 MB
  | Peak value for overall tracked memory usage on task 0     :           0.691 MB after allocating gradient_basis_wave
  | Largest tracked array allocation on task 0 so far         :           0.394 MB  when allocating gradient_basis_wave
  Note:  These values currently only include a subset of arrays which are explicitly tracked.
  The "true" memory usage will be greater.
------------------------------------------------------------

------------------------------------------------------------
          Begin self-consistency iteration #    2

  Date     :  20200805, Time     :  185303.023
------------------------------------------------------------
  Evaluating new KS density.
  Integration grid: deviation in total charge (<rho> - N_e) =   2.131628E-14
  Pulay mixing of updated and previous charge densities.

  Evaluating partitioned Hartree potential by multipole expansion.
  | Analytical far-field extrapolation by fixed multipoles:
  | Hartree multipole sum: apparent total charge =  -0.308096E-03
  Summing up the Hartree potential.
  Time summed over all CPUs for potential: real work        0.282 s, elapsed        0.282 s
  | RMS charge density error from multipole expansion :   0.139857E-01

  Integrating Hamiltonian matrix: batch-based integration.
  Time summed over all CPUs for integration: real work        0.497 s, elapsed        0.497 s

  Updating Kohn-Sham eigenvalues and eigenvectors using ELSI and the ELPA eigensolver.
  Finished Cholesky decomposition
  | Time :     0.000 s
  Finished transformation to standard eigenproblem
  | Time :     0.000 s
  Starting LAPACK eigensolver
  Finished solving standard eigenproblem
  | Time :     0.002 s
  Finished back-transformation of eigenvectors
  | Time :     0.000 s

  Obtaining occupation numbers and chemical potential using ELSI.
  | Chemical potential (Fermi level):    -2.48143070eV
  Highest occupied state (VBM) at     -6.66594305 eV
  | Occupation number:      2.00000000

  Lowest unoccupied state (CBM) at    -2.11288123 eV
  | Occupation number:      0.00000000

  Overall HOMO-LUMO gap:      4.55306182 eV.

  Checking to see if s.c.f. parameters should be adjusted.

  Total energy components:
  | Sum of eigenvalues            :        -181.86744795 Ha       -4948.86505415 eV
  | XC energy correction          :         -42.47467633 Ha       -1155.79474911 eV
  | XC potential correction       :          54.61068199 Ha        1486.03226534 eV
  | Free-atom electrostatic energy:        -146.86088931 Ha       -3996.28812700 eV
  | Hartree energy correction     :          -6.90588381 Ha        -187.91865971 eV
  | vdW energy correction         :           0.00000000 Ha           0.00000000 eV
  | Entropy correction            :           0.00000000 Ha           0.00000000 eV
  | ---------------------------
  | Total energy                  :        -323.49821541 Ha       -8802.83432463 eV
  | Total energy, T -> 0          :        -323.49821541 Ha       -8802.83432463 eV  <-- do not rely on this value for anything but (periodic) metals
  | Electronic free energy        :        -323.49821541 Ha       -8802.83432463 eV

  Derived energy quantities:
  | Kinetic energy                :         323.60166772 Ha        8805.64940516 eV
  | Electrostatic energy          :        -604.62520680 Ha      -16452.68898068 eV
  | Energy correction for multipole
  | error in Hartree potential    :           0.02561390 Ha           0.69698980 eV
  | Sum of eigenvalues per atom                           :        -380.68192724 eV
  | Total energy (T->0) per atom                          :        -677.14110189 eV  <-- do not rely on this value for anything but (periodic) metals
  | Electronic free energy per atom                       :        -677.14110189 eV

  Self-consistency convergence accuracy:
  | Change of charge density      :  0.3672E+00
  | Change of sum of eigenvalues  :  0.9686E+02 eV
  | Change of total energy        :  0.2144E+01 eV

  End self-consistency iteration #     2       :  max(cpu_time)    wall_clock(cpu1)
  | Time for this iteration                    :        1.182 s           1.183 s
  | Charge density update                      :        0.385 s           0.386 s
  | Density mixing                             :        0.007 s           0.006 s
  | Hartree multipole update                   :        0.009 s           0.009 s
  | Hartree multipole summation                :        0.282 s           0.282 s
  | Integration                                :        0.497 s           0.497 s
  | Solution of K.-S. eqns.                    :        0.002 s           0.003 s
  | Total energy evaluation                    :        0.000 s           0.000 s

  Partial memory accounting:
  | Current value for overall tracked memory usage on task 0  :           0.166 MB
  | Peak value for overall tracked memory usage on task 0     :           0.691 MB after allocating gradient_basis_wave
  | Largest tracked array allocation on task 0 so far         :           0.394 MB  when allocating gradient_basis_wave
  Note:  These values currently only include a subset of arrays which are explicitly tracked.
  The "true" memory usage will be greater.
------------------------------------------------------------

------------------------------------------------------------
          Begin self-consistency iteration #    3

  Date     :  20200805, Time     :  185304.206
------------------------------------------------------------
  Evaluating new KS density.
  Integration grid: deviation in total charge (<rho> - N_e) =  -3.552714E-14
  Pulay mixing of updated and previous charge densities.

  Evaluating partitioned Hartree potential by multipole expansion.
  | Analytical far-field extrapolation by fixed multipoles:
  | Hartree multipole sum: apparent total charge =  -0.404219E-03
  Summing up the Hartree potential.
  Time summed over all CPUs for potential: real work        0.282 s, elapsed        0.282 s
  | RMS charge density error from multipole expansion :   0.219528E-01

  Integrating Hamiltonian matrix: batch-based integration.
  Time summed over all CPUs for integration: real work        0.494 s, elapsed        0.494 s

  Updating Kohn-Sham eigenvalues and eigenvectors using ELSI and the ELPA eigensolver.
  Finished Cholesky decomposition
  | Time :     0.000 s
  Finished transformation to standard eigenproblem
  | Time :     0.000 s
  Starting LAPACK eigensolver
  Finished solving standard eigenproblem
  | Time :     0.002 s
  Finished back-transformation of eigenvectors
  | Time :     0.000 s

  Obtaining occupation numbers and chemical potential using ELSI.
  | Chemical potential (Fermi level):    -5.90210718eV
  Highest occupied state (VBM) at     -5.99643902 eV
  | Occupation number:      2.00000000

  Lowest unoccupied state (CBM) at    -1.43347611 eV
  | Occupation number:      0.00000000

  Overall HOMO-LUMO gap:      4.56296291 eV.

  Total energy components:
  | Sum of eigenvalues            :        -180.55988352 Ha       -4913.28441579 eV
  | XC energy correction          :         -42.62586202 Ha       -1159.90872100 eV
  | XC potential correction       :          54.80353679 Ha        1491.28011153 eV
  | Free-atom electrostatic energy:        -146.86088931 Ha       -3996.28812700 eV
  | Hartree energy correction     :          -8.24227231 Ha        -224.28364094 eV
  | vdW energy correction         :           0.00000000 Ha           0.00000000 eV
  | Entropy correction            :          -0.00000000 Ha          -0.00000000 eV
  | ---------------------------
  | Total energy                  :        -323.48537037 Ha       -8802.48479320 eV
  | Total energy, T -> 0          :        -323.48537037 Ha       -8802.48479320 eV  <-- do not rely on this value for anything but (periodic) metals
  | Electronic free energy        :        -323.48537037 Ha       -8802.48479320 eV

  Derived energy quantities:
  | Kinetic energy                :         323.20419480 Ha        8794.83361669 eV
  | Electrostatic energy          :        -604.06370315 Ha      -16437.40968889 eV
  | Energy correction for multipole
  | error in Hartree potential    :           0.03618875 Ha           0.98474605 eV
  | Sum of eigenvalues per atom                           :        -377.94495506 eV
  | Total energy (T->0) per atom                          :        -677.11421486 eV  <-- do not rely on this value for anything but (periodic) metals
  | Electronic free energy per atom                       :        -677.11421486 eV

  Self-consistency convergence accuracy:
  | Change of charge density      :  0.2060E+00
  | Change of sum of eigenvalues  :  0.3558E+02 eV
  | Change of total energy        :  0.3495E+00 eV

  End self-consistency iteration #     3       :  max(cpu_time)    wall_clock(cpu1)
  | Time for this iteration                    :        1.184 s           1.186 s
  | Charge density update                      :        0.388 s           0.387 s
  | Density mixing                             :        0.008 s           0.009 s
  | Hartree multipole update                   :        0.009 s           0.009 s
  | Hartree multipole summation                :        0.282 s           0.282 s
  | Integration                                :        0.494 s           0.495 s
  | Solution of K.-S. eqns.                    :        0.002 s           0.002 s
  | Total energy evaluation                    :        0.000 s           0.001 s

  Partial memory accounting:
  | Current value for overall tracked memory usage on task 0  :           0.166 MB
  | Peak value for overall tracked memory usage on task 0     :           0.692 MB after allocating gradient_basis_wave
  | Largest tracked array allocation on task 0 so far         :           0.394 MB  when allocating gradient_basis_wave
  Note:  These values currently only include a subset of arrays which are explicitly tracked.
  The "true" memory usage will be greater.
------------------------------------------------------------

------------------------------------------------------------
          Begin self-consistency iteration #    4

  Date     :  20200805, Time     :  185305.392
------------------------------------------------------------
  Evaluating new KS density.
  Integration grid: deviation in total charge (<rho> - N_e) =  -7.105427E-15
  Pulay mixing of updated and previous charge densities.

  Evaluating partitioned Hartree potential by multipole expansion.
  | Analytical far-field extrapolation by fixed multipoles:
  | Hartree multipole sum: apparent total charge =  -0.437204E-03
  Summing up the Hartree potential.
  Time summed over all CPUs for potential: real work        0.282 s, elapsed        0.282 s
  | RMS charge density error from multipole expansion :   0.254545E-01

  Integrating Hamiltonian matrix: batch-based integration.
  Time summed over all CPUs for integration: real work        0.497 s, elapsed        0.497 s

  Updating Kohn-Sham eigenvalues and eigenvectors using ELSI and the ELPA eigensolver.
  Finished Cholesky decomposition
  | Time :     0.000 s
  Finished transformation to standard eigenproblem
  | Time :     0.000 s
  Starting LAPACK eigensolver
  Finished solving standard eigenproblem
  | Time :     0.001 s
  Finished back-transformation of eigenvectors
  | Time :     0.000 s

  Obtaining occupation numbers and chemical potential using ELSI.
  | Chemical potential (Fermi level):    -1.66601842eV
  Highest occupied state (VBM) at     -5.84179986 eV
  | Occupation number:      2.00000000

  Lowest unoccupied state (CBM) at    -1.33305100 eV
  | Occupation number:      0.00000000

  Overall HOMO-LUMO gap:      4.50874886 eV.

  Total energy components:
  | Sum of eigenvalues            :        -180.42188550 Ha       -4909.52929859 eV
  | XC energy correction          :         -42.66378340 Ha       -1160.94061427 eV
  | XC potential correction       :          54.85119654 Ha        1492.57699929 eV
  | Free-atom electrostatic energy:        -146.86088931 Ha       -3996.28812700 eV
  | Hartree energy correction     :          -8.38898081 Ha        -228.27578245 eV
  | vdW energy correction         :           0.00000000 Ha           0.00000000 eV
  | Entropy correction            :           0.00000000 Ha           0.00000000 eV
  | ---------------------------
  | Total energy                  :        -323.48434248 Ha       -8802.45682303 eV
  | Total energy, T -> 0          :        -323.48434248 Ha       -8802.45682303 eV  <-- do not rely on this value for anything but (periodic) metals
  | Electronic free energy        :        -323.48434248 Ha       -8802.45682303 eV

  Derived energy quantities:
  | Kinetic energy                :         322.80342533 Ha        8783.92812464 eV
  | Electrostatic energy          :        -603.62398442 Ha      -16425.44433339 eV
  | Energy correction for multipole
  | error in Hartree potential    :           0.04038190 Ha           1.09884730 eV
  | Sum of eigenvalues per atom                           :        -377.65609989 eV
  | Total energy (T->0) per atom                          :        -677.11206331 eV  <-- do not rely on this value for anything but (periodic) metals
  | Electronic free energy per atom                       :        -677.11206331 eV

  Self-consistency convergence accuracy:
  | Change of charge density      :  0.6786E-01
  | Change of sum of eigenvalues  :  0.3755E+01 eV
  | Change of total energy        :  0.2797E-01 eV

  End self-consistency iteration #     4       :  max(cpu_time)    wall_clock(cpu1)
  | Time for this iteration                    :        1.186 s           1.187 s
  | Charge density update                      :        0.387 s           0.387 s
  | Density mixing                             :        0.010 s           0.010 s
  | Hartree multipole update                   :        0.009 s           0.009 s
  | Hartree multipole summation                :        0.282 s           0.282 s
  | Integration                                :        0.497 s           0.497 s
  | Solution of K.-S. eqns.                    :        0.002 s           0.002 s
  | Total energy evaluation                    :        0.000 s           0.000 s

  Partial memory accounting:
  | Current value for overall tracked memory usage on task 0  :           0.166 MB
  | Peak value for overall tracked memory usage on task 0     :           0.692 MB after allocating gradient_basis_wave
  | Largest tracked array allocation on task 0 so far         :           0.394 MB  when allocating gradient_basis_wave
  Note:  These values currently only include a subset of arrays which are explicitly tracked.
  The "true" memory usage will be greater.
------------------------------------------------------------

------------------------------------------------------------
          Begin self-consistency iteration #    5

  Date     :  20200805, Time     :  185306.580
------------------------------------------------------------
  Evaluating new KS density.
  Integration grid: deviation in total charge (<rho> - N_e) =  -7.105427E-15
  Pulay mixing of updated and previous charge densities.

  Evaluating partitioned Hartree potential by multipole expansion.
  | Analytical far-field extrapolation by fixed multipoles:
  | Hartree multipole sum: apparent total charge =  -0.431022E-03
  Summing up the Hartree potential.
  Time summed over all CPUs for potential: real work        0.282 s, elapsed        0.282 s
  | RMS charge density error from multipole expansion :   0.252097E-01

  Integrating Hamiltonian matrix: batch-based integration.
  Time summed over all CPUs for integration: real work        0.496 s, elapsed        0.496 s

  Updating Kohn-Sham eigenvalues and eigenvectors using ELSI and the ELPA eigensolver.
  Finished Cholesky decomposition
  | Time :     0.000 s
  Finished transformation to standard eigenproblem
  | Time :     0.000 s
  Starting LAPACK eigensolver
  Finished solving standard eigenproblem
  | Time :     0.002 s
  Finished back-transformation of eigenvectors
  | Time :     0.000 s

  Obtaining occupation numbers and chemical potential using ELSI.
  | Chemical potential (Fermi level):    -1.74142049eV
  Highest occupied state (VBM) at     -5.93283313 eV
  | Occupation number:      2.00000000

  Lowest unoccupied state (CBM) at    -1.43059077 eV
  | Occupation number:      0.00000000

  Overall HOMO-LUMO gap:      4.50224237 eV.

  Total energy components:
  | Sum of eigenvalues            :        -180.62759812 Ha       -4915.12702377 eV
  | XC energy correction          :         -42.63852229 Ha       -1160.25322466 eV
  | XC potential correction       :          54.81842149 Ha        1491.68514492 eV
  | Free-atom electrostatic energy:        -146.86088931 Ha       -3996.28812700 eV
  | Hartree energy correction     :          -8.17546632 Ha        -222.46575754 eV
  | vdW energy correction         :           0.00000000 Ha           0.00000000 eV
  | Entropy correction            :           0.00000000 Ha           0.00000000 eV
  | ---------------------------
  | Total energy                  :        -323.48405455 Ha       -8802.44898806 eV
  | Total energy, T -> 0          :        -323.48405455 Ha       -8802.44898806 eV  <-- do not rely on this value for anything but (periodic) metals
  | Electronic free energy        :        -323.48405455 Ha       -8802.44898806 eV

  Derived energy quantities:
  | Kinetic energy                :         322.68270003 Ha        8780.64302198 eV
  | Electrostatic energy          :        -603.52823229 Ha      -16422.83878538 eV
  | Energy correction for multipole
  | error in Hartree potential    :           0.03974673 Ha           1.08156352 eV
  | Sum of eigenvalues per atom                           :        -378.08669414 eV
  | Total energy (T->0) per atom                          :        -677.11146062 eV  <-- do not rely on this value for anything but (periodic) metals
  | Electronic free energy per atom                       :        -677.11146062 eV

  Self-consistency convergence accuracy:
  | Change of charge density      :  0.2043E-01
  | Change of sum of eigenvalues  : -0.5598E+01 eV
  | Change of total energy        :  0.7835E-02 eV

  End self-consistency iteration #     5       :  max(cpu_time)    wall_clock(cpu1)
  | Time for this iteration                    :        1.188 s           1.190 s
  | Charge density update                      :        0.389 s           0.389 s
  | Density mixing                             :        0.011 s           0.011 s
  | Hartree multipole update                   :        0.009 s           0.009 s
  | Hartree multipole summation                :        0.282 s           0.283 s
  | Integration                                :        0.495 s           0.495 s
  | Solution of K.-S. eqns.                    :        0.002 s           0.003 s
  | Total energy evaluation                    :        0.000 s           0.000 s

  Partial memory accounting:
  | Current value for overall tracked memory usage on task 0  :           0.166 MB
  | Peak value for overall tracked memory usage on task 0     :           0.692 MB after allocating gradient_basis_wave
  | Largest tracked array allocation on task 0 so far         :           0.394 MB  when allocating gradient_basis_wave
  Note:  These values currently only include a subset of arrays which are explicitly tracked.
  The "true" memory usage will be greater.
------------------------------------------------------------

------------------------------------------------------------
          Begin self-consistency iteration #    6

  Date     :  20200805, Time     :  185307.771
------------------------------------------------------------
  Evaluating new KS density.
  Integration grid: deviation in total charge (<rho> - N_e) =  -2.131628E-14
  Pulay mixing of updated and previous charge densities.

  Evaluating partitioned Hartree potential by multipole expansion.
  | Analytical far-field extrapolation by fixed multipoles:
  | Hartree multipole sum: apparent total charge =  -0.435178E-03
  Summing up the Hartree potential.
  Time summed over all CPUs for potential: real work        0.282 s, elapsed        0.282 s
  | RMS charge density error from multipole expansion :   0.256621E-01

  Integrating Hamiltonian matrix: batch-based integration.
  Time summed over all CPUs for integration: real work        0.503 s, elapsed        0.503 s

  Updating Kohn-Sham eigenvalues and eigenvectors using ELSI and the ELPA eigensolver.
  Finished Cholesky decomposition
  | Time :     0.000 s
  Finished transformation to standard eigenproblem
  | Time :     0.000 s
  Starting LAPACK eigensolver
  Finished solving standard eigenproblem
  | Time :     0.001 s
  Finished back-transformation of eigenvectors
  | Time :     0.000 s

  Obtaining occupation numbers and chemical potential using ELSI.
  | Chemical potential (Fermi level):    -1.73866414eV
  Highest occupied state (VBM) at     -5.89499931 eV
  | Occupation number:      2.00000000

  Lowest unoccupied state (CBM) at    -1.43552220 eV
  | Occupation number:      0.00000000

  Overall HOMO-LUMO gap:      4.45947711 eV.

  Total energy components:
  | Sum of eigenvalues            :        -180.60991257 Ha       -4914.64577553 eV
  | XC energy correction          :         -42.64006871 Ha       -1160.29530465 eV
  | XC potential correction       :          54.82039851 Ha        1491.73894234 eV
  | Free-atom electrostatic energy:        -146.86088931 Ha       -3996.28812700 eV
  | Hartree energy correction     :          -8.19353970 Ha        -222.95755921 eV
  | vdW energy correction         :           0.00000000 Ha           0.00000000 eV
  | Entropy correction            :           0.00000000 Ha           0.00000000 eV
  | ---------------------------
  | Total energy                  :        -323.48401178 Ha       -8802.44782406 eV
  | Total energy, T -> 0          :        -323.48401178 Ha       -8802.44782406 eV  <-- do not rely on this value for anything but (periodic) metals
  | Electronic free energy        :        -323.48401178 Ha       -8802.44782406 eV

  Derived energy quantities:
  | Kinetic energy                :         322.61417758 Ha        8778.77843125 eV
  | Electrostatic energy          :        -603.45812065 Ha      -16420.93095066 eV
  | Energy correction for multipole
  | error in Hartree potential    :           0.04017686 Ha           1.09326808 eV
  | Sum of eigenvalues per atom                           :        -378.04967504 eV
  | Total energy (T->0) per atom                          :        -677.11137108 eV  <-- do not rely on this value for anything but (periodic) metals
  | Electronic free energy per atom                       :        -677.11137108 eV

  Self-consistency convergence accuracy:
  | Change of charge density      :  0.1060E-01
  | Change of sum of eigenvalues  :  0.4812E+00 eV
  | Change of total energy        :  0.1164E-02 eV

  End self-consistency iteration #     6       :  max(cpu_time)    wall_clock(cpu1)
  | Time for this iteration                    :        1.193 s           1.199 s
  | Charge density update                      :        0.390 s           0.390 s
  | Density mixing                             :        0.012 s           0.012 s
  | Hartree multipole update                   :        0.009 s           0.009 s
  | Hartree multipole summation                :        0.283 s           0.283 s
  | Integration                                :        0.497 s           0.503 s
  | Solution of K.-S. eqns.                    :        0.002 s           0.002 s
  | Total energy evaluation                    :        0.000 s           0.000 s

  Partial memory accounting:
  | Current value for overall tracked memory usage on task 0  :           0.166 MB
  | Peak value for overall tracked memory usage on task 0     :           0.692 MB after allocating gradient_basis_wave
  | Largest tracked array allocation on task 0 so far         :           0.394 MB  when allocating gradient_basis_wave
  Note:  These values currently only include a subset of arrays which are explicitly tracked.
  The "true" memory usage will be greater.
------------------------------------------------------------

------------------------------------------------------------
          Begin self-consistency iteration #    7

  Date     :  20200805, Time     :  185308.971
------------------------------------------------------------
  Evaluating new KS density.
  Integration grid: deviation in total charge (<rho> - N_e) =  -4.973799E-14
  Pulay mixing of updated and previous charge densities.

  Evaluating partitioned Hartree potential by multipole expansion.
  | Analytical far-field extrapolation by fixed multipoles:
  | Hartree multipole sum: apparent total charge =  -0.435785E-03
  Summing up the Hartree potential.
  Time summed over all CPUs for potential: real work        0.282 s, elapsed        0.282 s
  | RMS charge density error from multipole expansion :   0.257568E-01

  Integrating Hamiltonian matrix: batch-based integration.
  Time summed over all CPUs for integration: real work        0.496 s, elapsed        0.496 s

  Updating Kohn-Sham eigenvalues and eigenvectors using ELSI and the ELPA eigensolver.
  Finished Cholesky decomposition
  | Time :     0.000 s
  Finished transformation to standard eigenproblem
  | Time :     0.000 s
  Starting LAPACK eigensolver
  Finished solving standard eigenproblem
  | Time :     0.002 s
  Finished back-transformation of eigenvectors
  | Time :     0.000 s

[...]
  |   Hirshfeld dipole moment :      0.05703385
  |   Hirshfeld second moments:      0.01588430      -0.03071812      -0.01714415
  |                                 -0.03071812      -0.02347016       0.00555279
  |                                 -0.01714415       0.00555279      -0.01757306
  ----------------------------------------------------------------------
  | Atom    12: O
  |   Hirshfeld charge        :     -0.16259101
  |   Free atom volume        :     23.61338643
  |   Hirshfeld volume        :     21.01812377
  |   Hirshfeld dipole vector :      0.03266947       0.03072005      -0.00776480
  |   Hirshfeld dipole moment :      0.04551162
  |   Hirshfeld second moments:      0.05370390      -0.02315105      -0.01568193
  |                                 -0.02315105       0.05035946       0.03894418
  |                                 -0.01568193       0.03894418       0.05857169
  ----------------------------------------------------------------------
  | Atom    13: H
  |   Hirshfeld charge        :      0.17696898
  |   Free atom volume        :      9.95071624
  |   Hirshfeld volume        :      6.47922566
  |   Hirshfeld dipole vector :      0.07843164      -0.05434643      -0.07166274
  |   Hirshfeld dipole moment :      0.11933401
  |   Hirshfeld second moments:      0.11810191      -0.00788457       0.00900968
  |                                 -0.00788457       0.10732817       0.02099410
  |                                  0.00900968       0.02099410       0.09575884
  ----------------------------------------------------------------------


  Total energy components:
  | Sum of eigenvalues            :        -180.61163692 Ha       -4914.69269734 eV
  | XC energy correction          :         -42.63654488 Ha       -1160.19941636 eV
  | XC potential correction       :          54.81592100 Ha        1491.61710314 eV
  | Free-atom electrostatic energy:        -146.86088931 Ha       -3996.28812700 eV
  | Hartree energy correction     :          -8.19083658 Ha        -222.88400349 eV
  | vdW energy correction         :          -0.00321546 Ha          -0.08749705 eV
  | Entropy correction            :           0.00000000 Ha           0.00000000 eV
  | ---------------------------
  | Total energy                  :        -323.48720213 Ha       -8802.53463810 eV
  | Total energy, T -> 0          :        -323.48720213 Ha       -8802.53463810 eV  <-- do not rely on this value for anything but (periodic) metals
  | Electronic free energy        :        -323.48720213 Ha       -8802.53463810 eV

  Derived energy quantities:
  | Kinetic energy                :         322.57571902 Ha        8777.73192072 eV
  | Electrostatic energy          :        -603.42316082 Ha      -16419.97964541 eV
  | Energy correction for multipole
  | error in Hartree potential    :           0.04021335 Ha           1.09426086 eV
  | Sum of eigenvalues per atom                           :        -378.05328441 eV
  | Total energy (T->0) per atom                          :        -677.11804908 eV  <-- do not rely on this value for anything but (periodic) metals
  | Electronic free energy per atom                       :        -677.11804908 eV

  atomic forces [eV/Ang]:
  -----------------------
  atom #    1
   Hellmann-Feynman              :  0.332255E+00  0.633755E+00  0.123635E+01
   Ionic forces                  :  0.000000E+00  0.000000E+00  0.000000E+00
   Multipole                     : -0.191221E-02  0.302890E+00 -0.276956E+00
   Pulay + GGA                   : -0.890341E+00 -0.266273E+00 -0.141516E+01
   Van der Waals                 :  0.236075E-02  0.305582E-02 -0.765655E-03
   ----------------------------------------------------------------
   Total forces(   1)            : -0.557637E+00  0.673427E+00 -0.456528E+00
  atom #    2
   Hellmann-Feynman              :  0.305746E+00  0.627803E-01 -0.112500E+00
   Ionic forces                  :  0.000000E+00  0.000000E+00  0.000000E+00
   Multipole                     :  0.170280E+00  0.102334E-01 -0.199973E-01
   Pulay + GGA                   : -0.146408E+00  0.372518E-02  0.260016E-01
   Van der Waals                 :  0.424747E-02 -0.710651E-02 -0.582368E-02
   ----------------------------------------------------------------
   Total forces(   2)            :  0.333865E+00  0.696324E-01 -0.112320E+00
  atom #    3
   Hellmann-Feynman              :  0.457301E+01 -0.101945E+02 -0.432183E+01
   Ionic forces                  :  0.000000E+00  0.000000E+00  0.000000E+00
   Multipole                     : -0.154924E+00  0.428278E-01 -0.906945E+00
   Pulay + GGA                   : -0.378005E+01  0.923498E+01  0.575697E+01
   Van der Waals                 :  0.341346E-02 -0.177965E-02 -0.953529E-02
   ----------------------------------------------------------------
   Total forces(   3)            :  0.641456E+00 -0.918436E+00  0.518664E+00
  atom #    4
   Hellmann-Feynman              : -0.186148E+00  0.272939E+00 -0.458932E-01
   Ionic forces                  :  0.000000E+00  0.000000E+00  0.000000E+00
   Multipole                     : -0.982988E-01  0.135487E-01 -0.526436E-01
   Pulay + GGA                   :  0.228189E+00 -0.854589E-01 -0.307317E-01
   Van der Waals                 : -0.257506E-02  0.565548E-02 -0.133204E-01
   ----------------------------------------------------------------
   Total forces(   4)            : -0.588329E-01  0.206684E+00 -0.142589E+00
  atom #    5
   Hellmann-Feynman              : -0.981305E-01  0.291529E+00 -0.498959E-01
   Ionic forces                  :  0.000000E+00  0.000000E+00  0.000000E+00
   Multipole                     : -0.232042E-01  0.618722E-01 -0.799401E-01
   Pulay + GGA                   : -0.255018E-01 -0.239267E+00  0.494348E-01
   Van der Waals                 : -0.399400E-02 -0.719962E-02 -0.477046E-02
   ----------------------------------------------------------------
   Total forces(   5)            : -0.150830E+00  0.106934E+00 -0.851716E-01
  atom #    6
   Hellmann-Feynman              :  0.309458E+00 -0.835083E+00  0.744840E+00
   Ionic forces                  :  0.000000E+00  0.000000E+00  0.000000E+00
   Multipole                     : -0.127977E+00  0.622397E+00  0.194928E+00
   Pulay + GGA                   :  0.834753E-01 -0.203097E+00 -0.492246E+00
   Van der Waals                 : -0.117261E-02  0.945426E-02  0.716681E-02
   ----------------------------------------------------------------
   Total forces(   6)            :  0.263783E+00 -0.406330E+00  0.454690E+00
  atom #    7
   Hellmann-Feynman              : -0.226591E+00 -0.597204E-01 -0.493310E-01
   Ionic forces                  :  0.000000E+00  0.000000E+00  0.000000E+00
   Multipole                     : -0.121839E+00  0.478584E-01  0.328965E-01
   Pulay + GGA                   :  0.114891E+00  0.129283E-01  0.198490E-01
   Van der Waals                 : -0.116802E-02  0.540768E-02  0.713970E-02
   ----------------------------------------------------------------
   Total forces(   7)            : -0.234708E+00  0.647403E-02  0.105542E-01
  atom #    8
   Hellmann-Feynman              :  0.534019E-01  0.588116E-01  0.235088E+00
   Ionic forces                  :  0.000000E+00  0.000000E+00  0.000000E+00
   Multipole                     :  0.163118E-01  0.622806E-01  0.126477E+00
   Pulay + GGA                   : -0.472555E-01 -0.441244E-01 -0.102797E+00
   Van der Waals                 : -0.287860E-02  0.114006E-01  0.583597E-03
   ----------------------------------------------------------------
   Total forces(   8)            :  0.195796E-01  0.883684E-01  0.259352E+00
  atom #    9
   Hellmann-Feynman              :  0.110727E+00  0.472899E-01 -0.195181E+00
   Ionic forces                  :  0.000000E+00  0.000000E+00  0.000000E+00
   Multipole                     :  0.214578E-01  0.130210E+00 -0.699735E-02
   Pulay + GGA                   : -0.427979E-01 -0.681277E-01  0.724319E-01
   Van der Waals                 : -0.312795E-02  0.575770E-02  0.819557E-02
   ----------------------------------------------------------------
   Total forces(   9)            :  0.862589E-01  0.115130E+00 -0.121551E+00
  atom #   10
   Hellmann-Feynman              :  0.335986E+01  0.460734E+01  0.166724E+01
   Ionic forces                  :  0.000000E+00  0.000000E+00  0.000000E+00
   Multipole                     :  0.219729E-02 -0.101621E+00  0.336491E+00
   Pulay + GGA                   : -0.213612E+01 -0.252617E+01  0.108080E+00
   Van der Waals                 :  0.526034E-02 -0.123220E-01  0.319592E-03
   ----------------------------------------------------------------
   Total forces(  10)            :  0.123120E+01  0.196723E+01  0.211213E+01
  atom #   11
   Hellmann-Feynman              :  0.417578E+01 -0.246384E+01  0.137518E+02
   Ionic forces                  :  0.000000E+00  0.000000E+00  0.000000E+00
   Multipole                     :  0.803921E-01 -0.582275E+00  0.738529E+00
   Pulay + GGA                   : -0.376129E+01  0.398921E+01 -0.134481E+02
   Van der Waals                 : -0.317082E-02 -0.104380E-01  0.679084E-02
   ----------------------------------------------------------------
   Total forces(  11)            :  0.491711E+00  0.932655E+00  0.104900E+01
  atom #   12
   Hellmann-Feynman              : -0.138001E+02 -0.667181E+01  0.163046E+00
   Ionic forces                  :  0.000000E+00  0.000000E+00  0.000000E+00
   Multipole                     : -0.979744E+00 -0.140398E+01 -0.116196E+00
   Pulay + GGA                   :  0.133006E+02  0.566854E+01 -0.221538E+01
   Van der Waals                 :  0.156694E-02  0.282025E-02  0.647211E-02
   ----------------------------------------------------------------
   Total forces(  12)            : -0.147760E+01 -0.240443E+01 -0.216205E+01
  atom #   13
   Hellmann-Feynman              : -0.334022E+00 -0.492439E+00 -0.155731E+01
   Ionic forces                  :  0.000000E+00  0.000000E+00  0.000000E+00
   Multipole                     :  0.555127E-01 -0.353154E-01 -0.350605E-01
   Pulay + GGA                   : -0.309859E+00  0.940145E-01  0.265316E+00
   Van der Waals                 :  0.123811E-02 -0.470605E-02 -0.245275E-02
   ----------------------------------------------------------------
   Total forces(  13)            : -0.587130E+00 -0.438446E+00 -0.132951E+01

  Timings for VdW correction (Tkatchenko-Scheffler 2009 or later):
  | CPU time:        0.090 s, Wall clock time:        0.090 s.
  Removing unitary transformations (pure translations, rotations) from forces on atoms.
  Atomic forces before filtering:
  | Net force on center of mass :   0.111205E-02 -0.110910E-02 -0.533357E-02 eV/A
  | Net torque on center of mass:   0.300643E-02  0.177972E-02  0.606153E-02 eV
  Atomic forces after filtering:
  | Net force on center of mass :  -0.267609E-15 -0.178406E-15  0.356812E-15 eV/A
  | Net torque on center of mass:  -0.330430E-15  0.814273E-15  0.132172E-14 eV

  Energy and forces in a compact form:
  | Total energy uncorrected      :         -0.880253463809869E+04 eV
  | Total energy corrected        :         -0.880253463809869E+04 eV  <-- do not rely on this value for anything but (periodic) metals
  | Electronic free energy        :         -0.880253463809869E+04 eV
  Total atomic forces (unitary forces cleaned) [eV/Ang]:
  |   1         -0.557707574666243E+00          0.673421079470454E+00         -0.456084654894852E+00
  |   2          0.333794666459483E+00          0.694029937580993E-01         -0.111779722192065E+00
  |   3          0.641510133964005E+00         -0.918460079551281E+00          0.519065018220441E+00
  |   4         -0.587909306754357E-01          0.206868461043274E+00         -0.142272585232076E+00
  |   5         -0.150560248118518E+00          0.106812099947677E+00         -0.848145979770490E-01
  |   6          0.263906625081518E+00         -0.406174471310680E+00          0.454985867657416E+00
  |   7         -0.234580083545928E+00          0.685391167787101E-02          0.107517460226792E-01
  |   8          0.196143938974572E-01          0.885343896406960E-01          0.259678993445262E+00
  |   9          0.866105112870570E-01          0.115170206506950E+00         -0.121296794402804E+00
  |  10          0.123079668599367E+01          0.196736518179967E+01          0.211264542103250E+01
  |  11          0.491154729093290E+00          0.932824955226006E+00          0.104955978143770E+01
  |  12         -0.147811438925088E+01         -0.240420714046557E+01         -0.216153111435515E+01
  |  13         -0.587634519519478E+00         -0.438411587743172E+00         -0.132890735876200E+01

  ------------------------------------ 
  Start decomposition of the XC Energy 
  ------------------------------------ 
  X and C from original XC functional choice 
  Hartree-Fock Energy :          0.000000000 Ha              0.000000000 eV
  X Energy            :        -41.035989019 Ha          -1116.646075529 eV
  C Energy            :         -1.600555857 Ha            -43.553340828 eV
  Total XC Energy     :        -42.636544875 Ha          -1160.199416357 eV
  ------------------------------------ 
  LDA X and C from self-consistent density 
  X Energy LDA        :        -37.254781535 Ha          -1013.754184823 eV
  C Energy LDA        :         -3.138480383 Ha            -85.402396436 eV
  ------------------------------------ 
  End decomposition of the XC Energy 
  ------------------------------------ 

------------------------------------------------------------

------------------------------------------------------------------------------
  Final output of selected total energy values:

  The following output summarizes some interesting total energy values
  at the end of a run (AFTER all relaxation, molecular dynamics, etc.).

  | Total energy of the DFT / Hartree-Fock s.c.f. calculation      :          -8802.534638099 eV
  | Final zero-broadening corrected energy (caution - metals only) :          -8802.534638099 eV
  | For reference only, the value of 1 Hartree used in FHI-aims is :             27.211384500 eV

  Before relying on these values, please be sure to understand exactly which
  total energy value is referred to by a given number. Different objects may
  all carry the same name 'total energy'. Definitions:

  Total energy of the DFT / Hartree-Fock s.c.f. calculation:
  | Note that this energy does not include ANY quantities calculated after the
  | s.c.f. cycle, in particular not ANY RPA, MP2, etc. many-body perturbation terms.

  Final zero-broadening corrected energy:
  | For metallic systems only, a broadening of the occupation numbers at the Fermi
  | level can be extrapolated back to zero broadening by an electron-gas inspired
  | formula. For all systems that are not real metals, this value can be
  | meaningless and should be avoided.

------------------------------------------------------------------------------
  Methods described in the following list of references were used in this FHI-aims run.
  If you publish the results, please make sure to cite these reference if they apply.
  FHI-aims is an academic code, and for our developers (often, Ph.D. students
  and postdocs), scientific credit in the community is essential.
  Thank you for helping us!

  For any use of FHI-aims, please cite:

    Volker Blum, Ralf Gehrke, Felix Hanke, Paula Havu, Ville Havu,
    Xinguo Ren, Karsten Reuter, and Matthias Scheffler
    'Ab initio molecular simulations with numeric atom-centered orbitals'
    Computer Physics Communications 180, 2175-2196 (2009)
    http://dx.doi.org/10.1016/j.cpc.2009.06.022


  The scalable eigensolver library ELPA was used in your run.
  ELPA is essential especially for large systems on hundreds or thousands of CPUs.
  For ELPA, please cite:

    Andreas Marek, Volker Blum, Rainer Johanni, Ville Havu, Bruno Lang,
    Thomas Auckenthaler, Alexander Heinecke, Hans-Joachim Bungartz, and Hermann Lederer,
    'The ELPA Library - Scalable Parallel Eigenvalue Solutions
    for Electronic Structure Theory and Computational Science'
    The Journal of Physics: Condensed Matter 26, 213201 (2014).
    http://dx.doi.org/10.1088/0953-8984/26/21/213201


  The ELSI infrastructure was used in your run to solve the Kohn-Sham electronic structure.
  Please check out http://elsi-interchange.org to learn more.
  If scalability is important for your project, please acknowledge ELSI by citing:

    V. W-z. Yu, F. Corsetti, A. Garcia, W. P. Huhn, M. Jacquelin, W. Jia,
    B. Lange, L. Lin, J. Lu, W. Mi, A. Seifitokaldani, A. Vazquez-Mayagoitia,
    C. Yang, H. Yang, and V. Blum
    'ELSI: A unified software interface for Kohn-Sham electronic structure solvers'
    Computer Physics Communications 222, 267-285 (2018).
    http://dx.doi.org/10.1016/j.cpc.2017.09.007


  For the real-space grid partitioning and parallelization used in this calculation, please cite:

    Ville Havu, Volker Blum, Paula Havu, and Matthias Scheffler,
    'Efficient O(N) integration for all-electron electronic structure calculation'
    'using numerically tabulated basis functions'
    Journal of Computational Physics 228, 8367-8379 (2009).
    http://dx.doi.org/10.1016/j.jcp.2009.08.008

  Of course, there are many other important community references, e.g., those cited in the
  above references. Our list is limited to references that describe implementations in the
  FHI-aims code. The reason is purely practical (length of this list) - please credit others as well.

------------------------------------------------------------
          Leaving FHI-aims.
          Date     :  20200805, Time     :  185323.250

          Computational steps:
          | Number of self-consistency cycles          :           16
          | Number of SCF (re)initializations          :            1

          Detailed time accounting                     :  max(cpu_time)    wall_clock(cpu1)
          | Total time                                 :       22.687 s          22.732 s
          | Preparation time                           :        0.147 s           0.149 s
          | Boundary condition initalization           :        0.000 s           0.000 s
          | Grid partitioning                          :        0.112 s           0.112 s
          | Preloading free-atom quantities on grid    :        0.002 s           0.003 s
          | Free-atom superposition energy             :        0.085 s           0.084 s
          | Total time for integrations                :        8.625 s           8.636 s
          | Total time for solution of K.-S. equations :        0.037 s           0.041 s
          | Total time for density & force components  :        7.159 s           7.171 s
          | Total time for mixing                      :        0.216 s           0.217 s
          | Total time for Hartree multipole update    :        0.142 s           0.144 s
          | Total time for Hartree multipole sum       :        5.762 s           5.765 s
          | Total time for total energy evaluation     :        0.003 s           0.005 s
          | Total time for vdW correction              :        0.090 s           0.090 s

          Partial memory accounting:
          | Residual value for overall tracked memory usage across tasks :           0.000 MB (should be 0.000 MB)
          | Peak values for overall tracked memory usage (after allocating hessian_basis_wave):
          |   Minimum:        1.612 MB (on task 1)
          |   Maximum:        1.612 MB (on task 1)
          |   Average:        1.612 MB
          | Largest tracked array allocation (hessian_basis_wave):
          |   Minimum:        0.788 MB (on task 1)
          |   Maximum:        0.788 MB (on task 1)
          |   Average:        0.788 MB
          Note:  These values currently only include a subset of arrays which are explicitly tracked.
          The "true" memory usage will be greater.

          Have a nice day.
------------------------------------------------------------
