  MPI-parallelism will be employed.
------------------------------------------------------------
          Invoking FHI-aims ...
          Version 171221_1
          Compiled on 2019/09/09 at 14:39:39 on host puhti-login2.bullx.

          When using FHI-aims, please cite the following reference:

          Volker Blum, Ralf Gehrke, Felix Hanke, Paula Havu,
          Ville Havu, Xinguo Ren, Karsten Reuter, and Matthias Scheffler,
          'Ab Initio Molecular Simulations with Numeric Atom-Centered Orbitals',
          Computer Physics Communications 180, 2175-2196 (2009)

          For any questions about FHI-aims, please visit the aimsclub website
          with its forums and wiki. Contributions to both the forums and the
          wiki are warmly encouraged - they are for you, and everyone is welcome there.

------------------------------------------------------------



  Date     :  20200710, Time     :  145935.466
  Time zero on CPU 1             :   0.118180000000000E-01  s.
  Internal wall clock time zero  :           363625175.466  s.

  FHI-aims created a unique identifier for this run for later identification
  aims_uuid : 90F54CB4-3E2E-4935-A1CE-0B7419D2C774

  Using        1 parallel tasks.
  Task        0 on host r18c46.bullx reporting.

  Performing system and environment tests:
  | Environment variable OMP_NUM_THREADS correctly set to 1.
  | Stacksize not measured: no C compiler
  | Checking for scalapack...
  | Testing pdtran()...
  | All pdtran() tests passed.

  Obtaining array dimensions for all initial allocations:
  
  -----------------------------------------------------------------------
  Parsing control.in (first pass over file, find array dimensions only).
  The contents of control.in will be repeated verbatim below
  unless switched off by setting 'verbatim_writeout .false.' .
  in the first line of control.in .
  -----------------------------------------------------------------------
  
  #########################################################################################
  #
  #  Volker Blum, FHI 2009 : Test run input file control.in for simple H2O
  #
  #########################################################################################
  #
  #  Physical model
  #
    xc                 pbe
    vdw_correction_hirshfeld
    spin               none
    relativistic       none
    charge             0.
  #
  #  SCF convergence
  #
    occupation_type    gaussian 0.01
    mixer              pulay
      n_max_pulay        10
      charge_mix_param   0.2
    sc_accuracy_rho    1E-5
    sc_accuracy_eev    1E-3
    sc_accuracy_etot   1E-6
    sc_accuracy_forces 1E-4
    sc_iter_limit      100
  #
  #  Relaxation
  #
  #  relax_geometry   bfgs 1.e-3
  #
  ################################################################################
  #
  #  FHI-aims code project
  #  VB, Fritz-Haber Institut, 2009
  #
  #  Suggested "light" defaults for H atom (to be pasted into control.in file)
  #  Be sure to double-check any results obtained with these settings for post-processing,
  #  e.g., with the "tight" defaults and larger basis sets.
  #
  ################################################################################
    species        H
  #     global species definitions
      nucleus             1
      mass                1.00794
  #
      l_hartree           4
  #
      cut_pot             3.5  1.5  1.0
      basis_dep_cutoff    1e-4
  #
      radial_base         24 5.0
      radial_multiplier   1
      angular_grids       specified
        division   0.2421   50
        division   0.3822  110
        division   0.4799  194
        division   0.5341  302
  #      division   0.5626  434
  #      division   0.5922  590
  #      division   0.6542  770
  #      division   0.6868 1202
  #      outer_grid  770
        outer_grid  302
  ################################################################################
  #
  #  Definition of "minimal" basis
  #
  ################################################################################
  #     valence basis states
      valence      1  s   1.
  #     ion occupancy
      ion_occ      1  s   0.5
  ################################################################################
  #
  #  Suggested additional basis functions. For production calculations,
  #  uncomment them one after another (the most important basis functions are
  #  listed first).
  #
  #  Basis constructed for dimers: 0.5 A, 0.7 A, 1.0 A, 1.5 A, 2.5 A
  #
  ################################################################################
  #  "First tier" - improvements: -1014.90 meV to -62.69 meV
       hydro 2 s 2.1
       hydro 2 p 3.5
  #  "Second tier" - improvements: -12.89 meV to -1.83 meV
  #     hydro 1 s 0.85
  #     hydro 2 p 3.7
  #     hydro 2 s 1.2
  #     hydro 3 d 7
  #  "Third tier" - improvements: -0.25 meV to -0.12 meV
  #     hydro 4 f 11.2
  #     hydro 3 p 4.8
  #     hydro 4 d 9
  #     hydro 3 s 3.2
  ################################################################################
  #
  #  FHI-aims code project
  #  VB, Fritz-Haber Institut, 2009
  #
  #  Suggested "light" defaults for C atom (to be pasted into control.in file)
  #  Be sure to double-check any results obtained with these settings for post-processing,
  #  e.g., with the "tight" defaults and larger basis sets.
  #
  ################################################################################
    species        C
  #     global species definitions
      nucleus             6
      mass                12.0107
  #
      l_hartree           4
  #
      cut_pot             3.5  1.5  1.0
      basis_dep_cutoff    1e-4
  #
      radial_base         34 5.0
      radial_multiplier   1
      angular_grids specified
        division   0.3326   50
        division   0.5710  110
        division   0.7727  194
        division   0.8772  302
  #      division   0.9334  434
  #      division   0.9625  590
  #      division   0.9924  770
  #      division   1.0230  974
  #      division   1.4589 1202
  #     outer_grid  974
       outer_grid 302
  ################################################################################
  #
  #  Definition of "minimal" basis
  #
  ################################################################################
  #     valence basis states
      valence      2  s   2.
      valence      2  p   2.
  #     ion occupancy
      ion_occ      2  s   1.
      ion_occ      2  p   1.
  ################################################################################
  #
  #  Suggested additional basis functions. For production calculations,
  #  uncomment them one after another (the most important basis functions are
  #  listed first).
  #
  #  Constructed for dimers: 1.0 A, 1.25 A, 1.5 A, 2.0 A, 3.0 A
  #
  ################################################################################
  #  "First tier" - improvements: -1214.57 meV to -155.61 meV
       hydro 2 p 1.7
       hydro 3 d 6
       hydro 2 s 4.9
  #  "Second tier" - improvements: -67.75 meV to -5.23 meV
  #     hydro 4 f 9.8
  #     hydro 3 p 5.2
  #     hydro 3 s 4.3
  #     hydro 5 g 14.4
  #     hydro 3 d 6.2
  #  "Third tier" - improvements: -2.43 meV to -0.60 meV
  #     hydro 2 p 5.6
  #     hydro 2 s 1.4
  #     hydro 3 d 4.9
  #     hydro 4 f 11.2
  #  "Fourth tier" - improvements: -0.39 meV to -0.18 meV
  #     hydro 2 p 2.1
  #     hydro 5 g 16.4
  #     hydro 4 d 13.2
  #     hydro 3 s 13.6
  #     hydro 4 f 17.6
  #  Further basis functions - improvements: -0.08 meV and below
  #     hydro 3 s 2
  #     hydro 3 p 6
  #     hydro 4 d 20
  ################################################################################
  #
  #  FHI-aims code project
  #  VB, Fritz-Haber Institut, 2009
  #
  #  Suggested "light" defaults for N atom (to be pasted into control.in file)
  #  Be sure to double-check any results obtained with these settings for post-processing,
  #  e.g., with the "tight" defaults and larger basis sets.
  #
  ################################################################################
    species        N
  #     global species definitions
      nucleus             7
      mass                14.0067
  #
      l_hartree           4
  #
      cut_pot             3.5  1.5  1.0
      basis_dep_cutoff    1e-4
  #
      radial_base         35 5.0
      radial_multiplier   1
      angular_grids       specified
        division   0.2599   50
        division   0.4601  110
        division   0.5885  194
        division   0.6503  302
  #      division   0.6939  434
  #      division   0.7396  590
  #      division   0.7632  770
  #      division   0.8122  974
  #      division   1.1604 1202
  #      outer_grid  974
        outer_grid  302
  ################################################################################
  #
  #  Definition of "minimal" basis
  #
  ################################################################################
  #     valence basis states
      valence      2  s   2.
      valence      2  p   3.
  #     ion occupancy
      ion_occ      2  s   1.
      ion_occ      2  p   2.
  ################################################################################
  #
  #  Suggested additional basis functions. For production calculations,
  #  uncomment them one after another (the most important basis functions are
  #  listed first).
  #
  #  Constructed for dimers: 1.0 A, 1.1 A, 1.5 A, 2.0 A, 3.0 A
  #
  ################################################################################
  #  "First tier" - improvements: -1193.42 meV to -220.60 meV
       hydro 2 p 1.8
       hydro 3 d 6.8
       hydro 3 s 5.8
  #  "Second tier" - improvements: -80.21 meV to -6.86 meV
  #     hydro 4 f 10.8
  #     hydro 3 p 5.8
  #     hydro 1 s 0.8
  #     hydro 5 g 16
  #     hydro 3 d 4.9
  #  "Third tier" - improvements: -4.29 meV to -0.53 meV
  #     hydro 3 s 16
  #     ionic 2 p auto
  #     hydro 3 d 6.6
  #     hydro 4 f 11.6
  #  "Fourth tier" - improvements: -0.75 meV to -0.25 meV
  #     hydro 2 p 4.5
  #     hydro 2 s 2.4
  #     hydro 5 g 14.4
  #     hydro 4 d 14.4
  #     hydro 4 f 16.8
  # Further basis functions - -0.21 meV and below
  #     hydro 3 p 14.8
  #     hydro 3 s 4.4
  #     hydro 3 d 19.6
  #     hydro 5 g 12.8
  ################################################################################
  #
  #  FHI-aims code project
  #  VB, Fritz-Haber Institut, 2009
  #
  #  Suggested "light" defaults for O atom (to be pasted into control.in file)
  #  Be sure to double-check any results obtained with these settings for post-processing,
  #  e.g., with the "tight" defaults and larger basis sets.
  #
  ################################################################################
    species        O
  #     global species definitions
      nucleus             8
      mass                15.9994
  #
      l_hartree           4
  #
      cut_pot             3.5  1.5  1.0
      basis_dep_cutoff    1e-4
  #
      radial_base         36 5.0
      radial_multiplier   1
       angular_grids specified
        division   0.2659   50
        division   0.4451  110
        division   0.6052  194
        division   0.7543  302
  #      division   0.8014  434
  #      division   0.8507  590
  #      division   0.8762  770
  #      division   0.9023  974
  #      division   1.2339 1202
  #      outer_grid 974
        outer_grid 302
  ################################################################################
  #
  #  Definition of "minimal" basis
  #
  ################################################################################
  #     valence basis states
      valence      2  s   2.
      valence      2  p   4.
  #     ion occupancy
      ion_occ      2  s   1.
      ion_occ      2  p   3.
  ################################################################################
  #
  #  Suggested additional basis functions. For production calculations,
  #  uncomment them one after another (the most important basis functions are
  #  listed first).
  #
  #  Constructed for dimers: 1.0 A, 1.208 A, 1.5 A, 2.0 A, 3.0 A
  #
  ################################################################################
  #  "First tier" - improvements: -699.05 meV to -159.38 meV
       hydro 2 p 1.8
       hydro 3 d 7.6
       hydro 3 s 6.4
  #  "Second tier" - improvements: -49.91 meV to -5.39 meV
  #     hydro 4 f 11.6
  #     hydro 3 p 6.2
  #     hydro 3 d 5.6
  #     hydro 5 g 17.6
  #     hydro 1 s 0.75
  #  "Third tier" - improvements: -2.83 meV to -0.50 meV
  #     ionic 2 p auto
  #     hydro 4 f 10.8
  #     hydro 4 d 4.7
  #     hydro 2 s 6.8
  #  "Fourth tier" - improvements: -0.40 meV to -0.12 meV
  #     hydro 3 p 5
  #     hydro 3 s 3.3
  #     hydro 5 g 15.6
  #     hydro 4 f 17.6
  #     hydro 4 d 14
  # Further basis functions - -0.08 meV and below
  #     hydro 3 s 2.1
  #     hydro 4 d 11.6
  #     hydro 3 p 16
  #     hydro 2 s 17.2
  
  -----------------------------------------------------------------------
  Completed first pass over input file control.in .
  -----------------------------------------------------------------------
  
  
  -----------------------------------------------------------------------
  Parsing geometry.in (first pass over file, find array dimensions only).
  The contents of geometry.in will be repeated verbatim below
  unless switched off by setting 'verbatim_writeout .false.' .
  in the first line of geometry.in .
  -----------------------------------------------------------------------
  
  atom  0.00000 0.00000 0.00000 C
  atom  1.09300 0.00000 0.00000 H
  atom  -0.47961 0.00000 -1.41207 N
  atom  -0.97309 0.87560 -1.58989 H
  atom  0.32471 -0.08242 -2.03046 H
  atom  -0.49584 1.26211 0.72868 C
  atom  -1.58789 1.28919 0.74431 H
  atom  -0.13407 1.27425 1.75947 H
  atom  -0.13407 2.16087 0.22380 H
  atom  -0.39425 -1.28861 0.74398 C
  atom  -0.10189 -1.56493 1.88303 O
  atom  -1.10210 -2.13717 0.06896 O
  atom  -0.44769 -2.35443 -0.61626 H
  
  -----------------------------------------------------------------------
  Completed first pass over input file geometry.in .
  -----------------------------------------------------------------------
  

  Basic array size parameters:
  | Number of species                 :        4
  | Number of atoms                   :       13
  | Max. basis fn. angular momentum   :        2
  | Max. atomic/ionic basis occupied n:        2
  | Max. number of basis fn. types    :        2
  | Max. radial fns per species/type  :        3
  | Max. logarithmic grid size        :     1301
  | Max. radial integration grid size :       36
  | Max. angular integration grid size:      302
  | Max. angular grid division number :        8
  | Radial grid for Hartree potential :     1301
  | Number of spin channels           :        1

------------------------------------------------------------
          Reading file control.in.
------------------------------------------------------------
  XC: Using PBE gradient-corrected functionals.
  Spin treatment: No spin polarisation.
  Non-relativistic treatment of kinetic energy.
  Charge =   0.000000E+00: Neutral system requested explicitly.
  Occupation type: Gaussian broadening, width =   0.100000E-01 eV.
  Using pulay charge density mixing.
  Pulay mixing - number of memorized iterations:   10
  Charge density mixing - mixing parameter:     0.2000
  Convergence accuracy of self-consistent charge density:  0.1000E-04
  Convergence accuracy of sum of eigenvalues:  0.1000E-02
  Convergence accuracy of total energy:  0.1000E-05
  Convergence accuracy of forces:  0.1000E-03
  Maximum number of s.-c. iterations  :   100
 
  Reading configuration options for species H                   .
  | Found nuclear charge :   1.0000
  | Found atomic mass :    1.00794000000000      amu
  | Found l_max for Hartree potential  :   4
  | Found cutoff potl. onset [A], width [A], scale factor :    3.50000    1.50000    1.00000
  | Threshold for basis-dependent cutoff potential is   0.100000E-03
  | Found data for basic radial integration grid :    24 points, outermost radius =    5.000 A
  | Found multiplier for basic radial grid :   1
  | Found angular grid specification: user-specified.
  | Specified grid contains     5 separate shells.
  | Check grid settings after all constraints further below.
  | Found free-atom valence shell :  1 s   1.000
  | No ionic wave fns used. Skipping ion_occ.
  | Found hydrogenic basis function :  2 s   2.100
  | Found hydrogenic basis function :  2 p   3.500
  Species H                   : Missing cutoff potential type.
  Defaulting to exp(1/x)/(1-x)^2 type cutoff potential.
  Species H : No 'logarithmic' tag. Using default grid for free atom:
  | Default logarithmic grid data [bohr] : 0.1000E-03 0.1000E+03 0.1012E+01
  Species H : On-site basis accuracy parameter (for Gram-Schmidt orthonormalisation) not specified.
  Using default value basis_acc =  0.1000000E-03.
  Species H                   : Using default innermost maximum threshold i_radial=  2 for radial functions.
  Species H                   : Default cutoff onset for free atom density etc. : 0.35000000E+01 AA.
  Species H                   : Basic radial grid will be enhanced according to radial_multiplier =   1, to contain    24 grid points.
 
  Reading configuration options for species C                   .
  | Found nuclear charge :   6.0000
  | Found atomic mass :    12.0107000000000      amu
  | Found l_max for Hartree potential  :   4
  | Found cutoff potl. onset [A], width [A], scale factor :    3.50000    1.50000    1.00000
  | Threshold for basis-dependent cutoff potential is   0.100000E-03
  | Found data for basic radial integration grid :    34 points, outermost radius =    5.000 A
  | Found multiplier for basic radial grid :   1
  | Found angular grid specification: user-specified.
  | Specified grid contains     5 separate shells.
  | Check grid settings after all constraints further below.
  | Found free-atom valence shell :  2 s   2.000
  | Found free-atom valence shell :  2 p   2.000
  | No ionic wave fns used. Skipping ion_occ.
  | No ionic wave fns used. Skipping ion_occ.
  | Found hydrogenic basis function :  2 p   1.700
  | Found hydrogenic basis function :  3 d   6.000
  | Found hydrogenic basis function :  2 s   4.900
  Species C                   : Missing cutoff potential type.
  Defaulting to exp(1/x)/(1-x)^2 type cutoff potential.
  Species C : No 'logarithmic' tag. Using default grid for free atom:
  | Default logarithmic grid data [bohr] : 0.1000E-03 0.1000E+03 0.1012E+01
  Species C : On-site basis accuracy parameter (for Gram-Schmidt orthonormalisation) not specified.
  Using default value basis_acc =  0.1000000E-03.
  Species C                   : Using default innermost maximum threshold i_radial=  2 for radial functions.
  Species C                   : Default cutoff onset for free atom density etc. : 0.35000000E+01 AA.
  Species C                   : Basic radial grid will be enhanced according to radial_multiplier =   1, to contain    34 grid points.
 
  Reading configuration options for species N                   .
  | Found nuclear charge :   7.0000
  | Found atomic mass :    14.0067000000000      amu
  | Found l_max for Hartree potential  :   4
  | Found cutoff potl. onset [A], width [A], scale factor :    3.50000    1.50000    1.00000
  | Threshold for basis-dependent cutoff potential is   0.100000E-03
  | Found data for basic radial integration grid :    35 points, outermost radius =    5.000 A
  | Found multiplier for basic radial grid :   1
  | Found angular grid specification: user-specified.
  | Specified grid contains     5 separate shells.
  | Check grid settings after all constraints further below.
  | Found free-atom valence shell :  2 s   2.000
  | Found free-atom valence shell :  2 p   3.000
  | No ionic wave fns used. Skipping ion_occ.
  | No ionic wave fns used. Skipping ion_occ.
  | Found hydrogenic basis function :  2 p   1.800
  | Found hydrogenic basis function :  3 d   6.800
  | Found hydrogenic basis function :  3 s   5.800
  Species N                   : Missing cutoff potential type.
  Defaulting to exp(1/x)/(1-x)^2 type cutoff potential.
  Species N : No 'logarithmic' tag. Using default grid for free atom:
  | Default logarithmic grid data [bohr] : 0.1000E-03 0.1000E+03 0.1012E+01
  Species N : On-site basis accuracy parameter (for Gram-Schmidt orthonormalisation) not specified.
  Using default value basis_acc =  0.1000000E-03.
  Species N                   : Using default innermost maximum threshold i_radial=  2 for radial functions.
  Species N                   : Default cutoff onset for free atom density etc. : 0.35000000E+01 AA.
  Species N                   : Basic radial grid will be enhanced according to radial_multiplier =   1, to contain    35 grid points.
 
  Reading configuration options for species O                   .
  | Found nuclear charge :   8.0000
  | Found atomic mass :    15.9994000000000      amu
  | Found l_max for Hartree potential  :   4
  | Found cutoff potl. onset [A], width [A], scale factor :    3.50000    1.50000    1.00000
  | Threshold for basis-dependent cutoff potential is   0.100000E-03
  | Found data for basic radial integration grid :    36 points, outermost radius =    5.000 A
  | Found multiplier for basic radial grid :   1
  | Found angular grid specification: user-specified.
  | Specified grid contains     5 separate shells.
  | Check grid settings after all constraints further below.
  | Found free-atom valence shell :  2 s   2.000
  | Found free-atom valence shell :  2 p   4.000
  | No ionic wave fns used. Skipping ion_occ.
  | No ionic wave fns used. Skipping ion_occ.
  | Found hydrogenic basis function :  2 p   1.800
  | Found hydrogenic basis function :  3 d   7.600
  | Found hydrogenic basis function :  3 s   6.400
  Species O                   : Missing cutoff potential type.
  Defaulting to exp(1/x)/(1-x)^2 type cutoff potential.
  Species O : No 'logarithmic' tag. Using default grid for free atom:
  | Default logarithmic grid data [bohr] : 0.1000E-03 0.1000E+03 0.1012E+01
  Species O : On-site basis accuracy parameter (for Gram-Schmidt orthonormalisation) not specified.
  Using default value basis_acc =  0.1000000E-03.
  Species O                   : Using default innermost maximum threshold i_radial=  2 for radial functions.
  Species O                   : Default cutoff onset for free atom density etc. : 0.35000000E+01 AA.
  Species O                   : Basic radial grid will be enhanced according to radial_multiplier =   1, to contain    36 grid points.
 
  Finished reading input file 'control.in'. Consistency checks are next.
 
  MPI_IN_PLACE appears to work with this MPI implementation.
  | Keeping use_mpi_in_place .true. (see manual).
  Target number of points in a grid batch is not set. Defaulting to  100
  Method for grid partitioning is not set. Defaulting to parallel hash+maxmin partitioning.
  Batch size limit is not set. Defaulting to    200
  By default, will store active basis functions for each batch.
  If in need of memory, prune_basis_once .false. can be used to disable this option.
  communication_type for Hartree potential was not specified.
  Defaulting to calc_hartree .
  Pulay mixer: Number of initial linear mixing iterations not set.
  Defaulting to    0 iterations.
  Work space size for distributed Hartree potential not set.
  Defaulting to   0.200000E+03 MB.
  Algorithm-dependent basis array size parameters:
  | n_max_pulay                         :       10
  Presetting      1001 iterations before the initial mixing cycle
  is restarted anyway using the sc_init_iter criterion / keyword.
  Presetting a factor      1.000 between actual scf density residual
  and density convergence criterion sc_accuracy_rho below which sc_init_iter
  takes no effect.
  Geometry relaxation not requested: no relaxation will be performed.
  Handling of forces: Unphysical translation and rotation will be removed from forces.
  No accuracy limit for integral partition fn. given. Defaulting to  0.1000E-14.
  No threshold value for u(r) in integrations given. Defaulting to  0.1000E-05.
  No accuracy for occupation numbers given. Defaulting to  0.1000E-12.
  No threshold value for occupation numbers given. Defaulting to  0.0000E+00.
  No accuracy for fermi level given. Defaulting to  0.1000E-19.
  Maximum # of iterations to find E_F not set. Defaulting to  200.
  Preferred method for the eigenvalue solver ('KS_method') not specified in 'control.in'.
  Defaulting to serial version, 'lapack_fast'.
  Will not use alltoall communication since running on < 1024 CPUs.
  Threshold for basis singularities not set.
  Default threshold for basis singularities:  0.1000E-04
  partition_type (choice of integration weights) for integrals was not specified.
  | Using a version of the partition function of Stratmann and coworkers ('stratmann_smoother').
  | At each grid point, the set of atoms used to build the partition table is smoothly restricted to
  | only those atoms whose free-atom density would be non-zero at that grid point.
  Partitioning for Hartree potential was not defined. Using partition_type for integrals.
  | Adjusted default value of keyword multip_moments_threshold to:       0.10000000E-11
  | This value may affect high angular momentum components of the Hartree potential in periodic systems.
  No q(lm)/r^(l+1) cutoff set for long-range Hartree potential.
  | Using default value of  0.100000E-09 .
  | Verify using the multipole_threshold keyword.
  Defaulting to new monopole extrapolation.
  Density update method: automatic selection selected.
------------------------------------------------------------


------------------------------------------------------------
          Reading geometry description geometry.in.
------------------------------------------------------------
  Input structure read successfully.
  The structure contains       13 atoms,  and a total of         48.000 electrons.

  Input geometry:
  | No unit cell requested.
  | Atomic structure:
  |       Atom                x [A]            y [A]            z [A]
  |    1: Species C             0.00000000        0.00000000        0.00000000
  |    2: Species H             1.09300000        0.00000000        0.00000000
  |    3: Species N            -0.47961000        0.00000000       -1.41207000
  |    4: Species H            -0.97309000        0.87560000       -1.58989000
  |    5: Species H             0.32471000       -0.08242000       -2.03046000
  |    6: Species C            -0.49584000        1.26211000        0.72868000
  |    7: Species H            -1.58789000        1.28919000        0.74431000
  |    8: Species H            -0.13407000        1.27425000        1.75947000
  |    9: Species H            -0.13407000        2.16087000        0.22380000
  |   10: Species C            -0.39425000       -1.28861000        0.74398000
  |   11: Species O            -0.10189000       -1.56493000        1.88303000
  |   12: Species O            -1.10210000       -2.13717000        0.06896000
  |   13: Species H            -0.44769000       -2.35443000       -0.61626000
  |

  | The smallest distance between any two atoms is         0.97210123 AA.
  |
  | The first atom of this pair is atom number                     12 .
  | The second atom of this pair is atom number                    13 .

  Number of empty states per atom not set in control.in - providing a guess from actual geometry.
  | Total number of empty states used during s.c.f. cycle:       29
  If you use a very high smearing, use empty_states (per atom!) in control.in to increase this value.

  Structure-dependent array size parameters: 
  | Maximum number of distinct radial functions  :       21
  | Maximum number of basis functions            :      119
  | Number of Kohn-Sham states (occupied + empty):       53
------------------------------------------------------------

------------------------------------------------------------
          Preparing all fixed parts of the calculation.
------------------------------------------------------------
  Determining machine precision:
    2.225073858507201E-308
  Setting up grids for atomic and cluster calculations.

  Creating wave function, potential, and density for free atoms.

  Species: H

  List of occupied orbitals and eigenvalues:
    n    l              occ      energy [Ha]    energy [eV]
    1    0           1.0000        -0.237589        -6.4651


  Species: C

  List of occupied orbitals and eigenvalues:
    n    l              occ      energy [Ha]    energy [eV]
    1    0           2.0000       -10.038835      -273.1706
    2    0           2.0000        -0.502696       -13.6791
    2    1           2.0000        -0.191971        -5.2238


  Species: N

  List of occupied orbitals and eigenvalues:
    n    l              occ      energy [Ha]    energy [eV]
    1    0           2.0000       -14.128000      -384.4424
    2    0           2.0000        -0.681077       -18.5330
    2    1           3.0000        -0.259788        -7.0692


  Species: O

  List of occupied orbitals and eigenvalues:
    n    l              occ      energy [Ha]    energy [eV]
    1    0           2.0000       -18.898188      -514.2459
    2    0           2.0000        -0.878505       -23.9053
    2    1           4.0000        -0.331779        -9.0282

  Creating fixed part of basis set: Ionic, confined, hydrogenic.
 
  H                    hydrogenic:
 
  List of hydrogenic basis orbitals: 
    n    l      effective z      eigenvalue [eV]  inner max. [A]     outer max. [A]     outer radius [A]   
    2    0         2.100000       -14.9728           0.193243           1.317208           4.583499
    2    1         3.500000       -41.6669           0.602369           0.602369           3.723403
 
 
  C                    hydrogenic:
 
  List of hydrogenic basis orbitals: 
    n    l      effective z      eigenvalue [eV]  inner max. [A]     outer max. [A]     outer radius [A]   
    2    1         1.700000        -9.7616           1.230570           1.230570           4.607917
    3    2         6.000000       -54.4224           0.792453           0.792453           3.883070
    2    0         4.900000       -81.6679           0.082559           0.562749           3.078220
 
 
  N                    hydrogenic:
 
  List of hydrogenic basis orbitals: 
    n    l      effective z      eigenvalue [eV]  inner max. [A]     outer max. [A]     outer radius [A]   
    2    1         1.800000       -10.9749           1.177451           1.177451           4.573712
    3    2         6.800000       -69.9026           0.704619           0.704619           3.538137
    3    0         5.800000       -50.8545           0.067388           1.191934           4.250239
 
 
  O                    hydrogenic:
 
  List of hydrogenic basis orbitals: 
    n    l      effective z      eigenvalue [eV]  inner max. [A]     outer max. [A]     outer radius [A]   
    2    1         1.800000       -10.9749           1.164242           1.164242           4.578029
    3    2         7.600000       -87.3180           0.624125           0.624125           3.251020
    3    0         6.400000       -61.9207           0.061167           1.081902           4.001998
 

  Adding cutoff potential to free-atom effective potential.
  Creating atomic-like basis functions for current effective potential.

  Species H                   :

  List of atomic basis orbitals and eigenvalues:
    n    l      energy [Ha]    energy [eV]    outer radius [A]
    1    0        -0.237589        -6.4651       4.527807


  Species C                   :

  List of atomic basis orbitals and eigenvalues:
    n    l      energy [Ha]    energy [eV]    outer radius [A]
    1    0       -10.038835      -273.1706       1.934409
    2    0        -0.502696       -13.6791       4.496620
    2    1        -0.191971        -5.2238       4.551928


  Species N                   :

  List of atomic basis orbitals and eigenvalues:
    n    l      energy [Ha]    energy [eV]    outer radius [A]
    1    0       -14.128000      -384.4424       1.637919
    2    0        -0.681077       -18.5330       4.463241
    2    1        -0.259788        -7.0692       4.518138


  Species O                   :

  List of atomic basis orbitals and eigenvalues:
    n    l      energy [Ha]    energy [eV]    outer radius [A]
    1    0       -18.898188      -514.2459       1.415765
    2    0        -0.878505       -23.9053       4.413171
    2    1        -0.331779        -9.0282       4.522403

  Assembling full basis from fixed parts.
  | Species H :   atomic orbital   1 s accepted.
  | Species H :    hydro orbital   2 s accepted.
  | Species H :    hydro orbital   2 p accepted.
  | Species C :   atomic orbital   1 s accepted.
  | Species C :    hydro orbital   2 s accepted.
  | Species C :   atomic orbital   2 s accepted.
  | Species C :   atomic orbital   2 p accepted.
  | Species C :    hydro orbital   2 p accepted.
  | Species C :    hydro orbital   3 d accepted.
  | Species N :   atomic orbital   1 s accepted.
  | Species N :    hydro orbital   3 s accepted.
  | Species N :   atomic orbital   2 s accepted.
  | Species N :   atomic orbital   2 p accepted.
  | Species N :    hydro orbital   2 p accepted.
  | Species N :    hydro orbital   3 d accepted.
  | Species O :   atomic orbital   1 s accepted.
  | Species O :    hydro orbital   3 s accepted.
  | Species O :   atomic orbital   2 s accepted.
  | Species O :   atomic orbital   2 p accepted.
  | Species O :    hydro orbital   2 p accepted.
  | Species O :    hydro orbital   3 d accepted.
 
  Basis size parameters after reduction:
  | Total number of radial functions:       21
  | Total number of basis functions :      119
 
  Per-task memory consumption for arrays in subroutine allocate_ext:
  |           5.250512MB.
  Testing on-site integration grid accuracy.
  |  Species  Function  <phi|h_atom|phi> (log., in eV)  <phi|h_atom|phi> (rad., in eV)
           1        1                 -6.4663192853                 -6.4651273558
           1        2                 13.7111246313                 13.7170609718
           1        3                 25.2673269279                 25.2674696378
           2        4               -273.1705927641               -273.1705631568
           2        5                -10.7109323383                -10.7107120029
           2        6                 17.4381822266                 17.4352413244
           2        7                 -5.2255326521                 -5.2270484734
           2        8                  8.6835629259                  8.6603288385
           2        9                 27.4952418996                 27.4953360207
           3       10               -384.4424306495               -384.4423701208
           3       11                 12.5842251816                 12.5842222903
           3       12                -15.7264628251                -15.7264433455
           3       13                 -7.0696854293                 -7.0701769954
           3       14                  8.8090390882                  8.7901077751
           3       15                 35.9586762123                 35.9588528632
           4       16               -514.2458688638               -514.2457643834
           4       17                 15.1795651126                 15.1795290741
           4       18                -21.5359799773                -21.5360846186
           4       19                 -9.0283069236                 -9.0284644067
           4       20                  8.3027758564                  8.2834874195
           4       21                 45.8339351984                 45.8338762259

  Preparing densities etc. for the partition functions (integrals / Hartree potential).

  Preparations completed.
  max(cpu_time)          :      0.145 s.
  Wall clock time (cpu1) :      0.149 s.
------------------------------------------------------------

------------------------------------------------------------
          Begin self-consistency loop: Initialization.

          Date     :  20200710, Time     :  145935.629
------------------------------------------------------------

  Initializing index lists of integration centers etc. from given atomic structure:
  | Number of centers in hartree potential         :        13
  | Number of centers in hartree multipole         :        13
  | Number of centers in electron density summation:        13
  | Number of centers in basis integrals           :        13
  | Number of centers in integrals                 :        13
  | Number of centers in hamiltonian               :        13
  Partitioning the integration grid into batches with parallel hashing+maxmin method.
  | Number of batches:      961
  | Maximal batch size:     139
  | Minimal batch size:      66
  | Average batch size:      72.472
  | Standard deviation of batch sizes:      16.858

  Integration load balanced across     1 MPI tasks.
  Work distribution over tasks is as follows:
  Task     0 has      69646 integration points.
  Initializing partition tables, free-atom densities, potentials, etc. across the integration grid (initialize_grid_storage).
  | initialize_grid_storage: Actual outermost partition radius vs. multipole_radius_free
  | (-- VB: in principle, multipole_radius_free should be larger, hence this output)
  | Species        1: Confinement radius =              4.999999999999999 AA, multipole_radius_free =              5.054417573612229 AA.
  | Species        1: outer_partition_radius set to              5.054417573612229 AA .
  | Species        2: Confinement radius =              4.999999999999999 AA, multipole_radius_free =              5.019602836301480 AA.
  | Species        2: outer_partition_radius set to              5.019602836301480 AA .
  | Species        3: Confinement radius =              4.999999999999999 AA, multipole_radius_free =              5.043624274424571 AA.
  | Species        3: outer_partition_radius set to              5.043624274424571 AA .
  | Species        4: Confinement radius =              4.999999999999999 AA, multipole_radius_free =              5.048384829883283 AA.
  | Species        4: outer_partition_radius set to              5.048384829883283 AA .
  | Original list of interatomic distances with          13 x         13 entries is created.
  | Net number of integration points:    69646
  | of which are non-zero points    :    59522
  Renormalizing the initial density to the exact electron count on the 3D integration grid.
  | Initial density: Formal number of electrons (from input files) :      48.0000000000
  | Integrated number of electrons on 3D grid     :      47.9999462711
  | Charge integration error                      :      -0.0000537289
  | Normalization factor for density and gradient :       1.0000011194
  Obtaining max. number of non-zero basis functions in each batch (get_n_compute_maxes).
  | Maximal number of non-zero basis functions:      119 in task     0
  Selecting the method for density update.
  Loop over occupied states selected for charge density update.
  Allocating        0.050 MB for KS_eigenvector
  Integrating Hamiltonian matrix: batch-based integration.
  Time summed over all CPUs for integration: real work        0.495 s, elapsed        0.495 s
  Integrating overlap matrix.
  Time summed over all CPUs for integration: real work        0.219 s, elapsed        0.219 s

  Updating Kohn-Sham eigenvalues and eigenvectors using ELSI and the ELPA eigensolver.
  Overlap matrix is nonsingular
  | Lowest eigenvalue of overlap  :  0.44E-02
  | Highest eigenvalue of overlap :  0.62E+01
  Finished singularity check of overlap matrix
  | Time :     0.002 s
  Finished Cholesky decomposition
  | Time :     0.000 s
  Finished transformation to standard eigenproblem
  | Time :     0.000 s
  Starting LAPACK eigensolver
  Finished solving standard eigenproblem
  | Time :     0.002 s
  Finished back-transformation of eigenvectors
  | Time :     0.000 s

  Obtaining occupation numbers and chemical potential using ELSI.
  | Chemical potential (Fermi level):    -9.74466591eV
  Writing Kohn-Sham eigenvalues.

  State    Occupation    Eigenvalue [Ha]    Eigenvalue [eV]
      1       2.00000         -19.007487         -517.22003
      2       2.00000         -18.977190         -516.39560
      3       2.00000         -14.246024         -387.65404
      4       2.00000         -10.166902         -276.65547
      5       2.00000         -10.141474         -275.96354
      6       2.00000         -10.131883         -275.70257
      7       2.00000          -1.181949          -32.16246
      8       2.00000          -1.098775          -29.89919
      9       2.00000          -0.992016          -26.99414
     10       2.00000          -0.859362          -23.38442
     11       2.00000          -0.756312          -20.58030
     12       2.00000          -0.681210          -18.53666
     13       2.00000          -0.621312          -16.90675
     14       2.00000          -0.611259          -16.63321
     15       2.00000          -0.588490          -16.01362
     16       2.00000          -0.573015          -15.59255
     17       2.00000          -0.555889          -15.12650
     18       2.00000          -0.525199          -14.29138
     19       2.00000          -0.517761          -14.08899
     20       2.00000          -0.499827          -13.60099
     21       2.00000          -0.458486          -12.47604
     22       2.00000          -0.427013          -11.61960
     23       2.00000          -0.414818          -11.28777
     24       2.00000          -0.380386          -10.35082
     25       0.00000          -0.159674           -4.34495
     26       0.00000          -0.067577           -1.83886
     27       0.00000          -0.027609           -0.75128
     28       0.00000          -0.020962           -0.57041
     29       0.00000          -0.008701           -0.23676
     30       0.00000           0.006805            0.18517
     31       0.00000           0.019154            0.52122
     32       0.00000           0.029659            0.80706
     33       0.00000           0.034337            0.93436
     34       0.00000           0.080224            2.18301
     35       0.00000           0.095112            2.58814
     36       0.00000           0.131904            3.58929
     37       0.00000           0.159398            4.33745
     38       0.00000           0.198553            5.40290
     39       0.00000           0.218247            5.93881
     40       0.00000           0.229881            6.25538
     41       0.00000           0.260936            7.10044
     42       0.00000           0.274188            7.46105
     43       0.00000           0.276868            7.53397
     44       0.00000           0.300055            8.16492
     45       0.00000           0.346470            9.42792
     46       0.00000           0.356917            9.71221
     47       0.00000           0.381944           10.39322
     48       0.00000           0.401270           10.91912
     49       0.00000           0.413630           11.25544
     50       0.00000           0.491752           13.38124
     51       0.00000           0.510046           13.87906
     52       0.00000           0.541562           14.73664
     53       0.00000           0.559073           15.21314

  Highest occupied state (VBM) at    -10.35082475 eV
  | Occupation number:      2.00000000

  Lowest unoccupied state (CBM) at    -4.34494580 eV
  | Occupation number:      0.00000000

  Overall HOMO-LUMO gap:      6.00587895 eV.
  Calculating total energy contributions from superposition of free atom densities.

  Total energy components:
  | Sum of eigenvalues            :        -188.82807309 Ha       -5138.27330129 eV
  | XC energy correction          :         -41.78718981 Ha       -1137.08728905 eV
  | XC potential correction       :          53.71792895 Ha        1461.73921926 eV
  | Free-atom electrostatic energy:        -146.86064039 Ha       -3996.28135365 eV
  | Hartree energy correction     :           0.00000000 Ha           0.00000000 eV
  | vdW energy correction         :           0.00000000 Ha           0.00000000 eV
  | Entropy correction            :           0.00000000 Ha           0.00000000 eV
  | ---------------------------
  | Total energy                  :        -323.75797434 Ha       -8809.90272474 eV
  | Total energy, T -> 0          :        -323.75797434 Ha       -8809.90272474 eV  <-- do not rely on this value for anything but (periodic) metals
  | Electronic free energy        :        -323.75797434 Ha       -8809.90272474 eV

  Derived energy quantities:
  | Kinetic energy                :         320.49464936 Ha        8721.10313396 eV
  | Electrostatic energy          :        -602.46543389 Ha      -16393.91856964 eV
  | Energy correction for multipole
  | error in Hartree potential    :           0.00000000 Ha           0.00000000 eV
  | Sum of eigenvalues per atom                           :        -395.25179241 eV
  | Total energy (T->0) per atom                          :        -677.68482498 eV  <-- do not rely on this value for anything but (periodic) metals
  | Electronic free energy per atom                       :        -677.68482498 eV
  Initialize hartree_potential_storage
  Max. number of atoms included in rho_multipole:           13

  End scf initialization - timings             :  max(cpu_time)    wall_clock(cpu1)
  | Time for scf. initialization               :        1.150 s           1.159 s
  | Boundary condition initialization          :        0.000 s           0.000 s
  | Integration                                :        0.708 s           0.715 s
  | Solution of K.-S. eqns.                    :        0.004 s           0.005 s
  | Grid partitioning                          :        0.111 s           0.112 s
  | Preloading free-atom quantities on grid    :        0.002 s           0.002 s
  | Free-atom superposition energy             :        0.085 s           0.085 s
  | Total energy evaluation                    :        0.000 s           0.000 s

  Partial memory accounting:
  | Current value for overall tracked memory usage on task 0  :           0.165 MB
  | Peak value for overall tracked memory usage on task 0     :           0.678 MB after allocating wave
  | Largest tracked array allocation on task 0 so far         :           0.132 MB  when allocating H_times_psi
  Note:  These values currently only include a subset of arrays which are explicitly tracked.
  The "true" memory usage will be greater.
------------------------------------------------------------

------------------------------------------------------------
          Begin self-consistency iteration #    1

  Date     :  20200710, Time     :  145936.788
------------------------------------------------------------
  Evaluating new KS density.
  Integration grid: deviation in total charge (<rho> - N_e) =   0.000000E+00
  Pulay mixing of updated and previous charge densities.

  Evaluating partitioned Hartree potential by multipole expansion.
  | Analytical far-field extrapolation by fixed multipoles:
  | Hartree multipole sum: apparent total charge =  -0.157799E-03
  Summing up the Hartree potential.
  Time summed over all CPUs for potential: real work        0.283 s, elapsed        0.283 s
  | RMS charge density error from multipole expansion :   0.582962E-02

  Integrating Hamiltonian matrix: batch-based integration.
  Time summed over all CPUs for integration: real work        0.495 s, elapsed        0.495 s

  Updating Kohn-Sham eigenvalues and eigenvectors using ELSI and the ELPA eigensolver.
  Finished Cholesky decomposition
  | Time :     0.000 s
  Finished transformation to standard eigenproblem
  | Time :     0.000 s
  Starting LAPACK eigensolver
  Finished solving standard eigenproblem
  | Time :     0.002 s
  Finished back-transformation of eigenvectors
  | Time :     0.000 s

  Obtaining occupation numbers and chemical potential using ELSI.
  | Chemical potential (Fermi level):    -4.49371681eV
  Writing Kohn-Sham eigenvalues.

  State    Occupation    Eigenvalue [Ha]    Eigenvalue [eV]
      1       2.00000         -18.891970         -514.07665
      2       2.00000         -18.835091         -512.52890
      3       2.00000         -14.100814         -383.70268
      4       2.00000         -10.112948         -275.18733
      5       2.00000         -10.065024         -273.88324
      6       2.00000         -10.034118         -273.04224
      7       2.00000          -1.127100          -30.66996
      8       2.00000          -1.032066          -28.08396
      9       2.00000          -0.925086          -25.17286
     10       2.00000          -0.795148          -21.63707
     11       2.00000          -0.704453          -19.16914
     12       2.00000          -0.633030          -17.22563
     13       2.00000          -0.562876          -15.31664
     14       2.00000          -0.558684          -15.20257
     15       2.00000          -0.525207          -14.29160
     16       2.00000          -0.518385          -14.10596
     17       2.00000          -0.488872          -13.30289
     18       2.00000          -0.465731          -12.67318
     19       2.00000          -0.454937          -12.37946
     20       2.00000          -0.443315          -12.06320
     21       2.00000          -0.396447          -10.78788
     22       2.00000          -0.364229           -9.91117
     23       2.00000          -0.342087           -9.30867
     24       2.00000          -0.309016           -8.40876
     25       0.00000          -0.121048           -3.29387
     26       0.00000          -0.044780           -1.21853
     27       0.00000          -0.000980           -0.02668
     28       0.00000           0.013034            0.35468
     29       0.00000           0.019250            0.52381
     30       0.00000           0.045269            1.23182
     31       0.00000           0.055498            1.51018
     32       0.00000           0.067158            1.82745
     33       0.00000           0.073228            1.99265
     34       0.00000           0.119622            3.25507
     35       0.00000           0.134623            3.66328
     36       0.00000           0.162486            4.42147
     37       0.00000           0.186479            5.07434
     38       0.00000           0.227260            6.18407
     39       0.00000           0.253989            6.91140
     40       0.00000           0.264582            7.19963
     41       0.00000           0.295209            8.03303
     42       0.00000           0.306132            8.33026
     43       0.00000           0.316468            8.61154
     44       0.00000           0.334702            9.10770
     45       0.00000           0.383561           10.43723
     46       0.00000           0.400250           10.89136
     47       0.00000           0.423458           11.52287
     48       0.00000           0.439248           11.95256
     49       0.00000           0.450323           12.25391
     50       0.00000           0.525524           14.30023
     51       0.00000           0.545614           14.84691
     52       0.00000           0.574476           15.63228
     53       0.00000           0.596112           16.22104

  Highest occupied state (VBM) at     -8.40875670 eV
  | Occupation number:      2.00000000

  Lowest unoccupied state (CBM) at    -3.29387092 eV
  | Occupation number:      0.00000000

  Overall HOMO-LUMO gap:      5.11488578 eV.

  Total energy components:
  | Sum of eigenvalues            :        -185.37327038 Ha       -5044.26333646 eV
  | XC energy correction          :         -42.11753551 Ha       -1146.07645301 eV
  | XC potential correction       :          54.14763280 Ha        1473.43205600 eV
  | Free-atom electrostatic energy:        -146.86064039 Ha       -3996.28135365 eV
  | Hartree energy correction     :          -3.37022975 Ha         -91.70861753 eV
  | vdW energy correction         :           0.00000000 Ha           0.00000000 eV
  | Entropy correction            :           0.00000000 Ha           0.00000000 eV
  | ---------------------------
  | Total energy                  :        -323.57404323 Ha       -8804.89770466 eV
  | Total energy, T -> 0          :        -323.57404323 Ha       -8804.89770466 eV  <-- do not rely on this value for anything but (periodic) metals
  | Electronic free energy        :        -323.57404323 Ha       -8804.89770466 eV

  Derived energy quantities:
  | Kinetic energy                :         322.29784293 Ha        8770.17052754 eV
  | Electrostatic energy          :        -603.75435065 Ha      -16428.99177919 eV
  | Energy correction for multipole
  | error in Hartree potential    :           0.01180883 Ha           0.32133465 eV
  | Sum of eigenvalues per atom                           :        -388.02025665 eV
  | Total energy (T->0) per atom                          :        -677.29982344 eV  <-- do not rely on this value for anything but (periodic) metals
  | Electronic free energy per atom                       :        -677.29982344 eV

  Self-consistency convergence accuracy:
  | Change of charge density      :  0.5876E+00
  | Change of sum of eigenvalues  :  0.9401E+02 eV
  | Change of total energy        :  0.5005E+01 eV

  End self-consistency iteration #     1       :  max(cpu_time)    wall_clock(cpu1)
  | Time for this iteration                    :        1.191 s           1.192 s
  | Charge density update                      :        0.395 s           0.395 s
  | Density mixing                             :        0.005 s           0.006 s
  | Hartree multipole update                   :        0.009 s           0.009 s
  | Hartree multipole summation                :        0.284 s           0.284 s
  | Integration                                :        0.495 s           0.495 s
  | Solution of K.-S. eqns.                    :        0.002 s           0.002 s
  | Total energy evaluation                    :        0.000 s           0.000 s

  Partial memory accounting:
  | Current value for overall tracked memory usage on task 0  :           0.165 MB
  | Peak value for overall tracked memory usage on task 0     :           0.695 MB after allocating gradient_basis_wave
  | Largest tracked array allocation on task 0 so far         :           0.397 MB  when allocating gradient_basis_wave
  Note:  These values currently only include a subset of arrays which are explicitly tracked.
  The "true" memory usage will be greater.
------------------------------------------------------------

------------------------------------------------------------
          Begin self-consistency iteration #    2

  Date     :  20200710, Time     :  145937.981
------------------------------------------------------------
  Evaluating new KS density.
  Integration grid: deviation in total charge (<rho> - N_e) =  -2.842171E-14
  Pulay mixing of updated and previous charge densities.

  Evaluating partitioned Hartree potential by multipole expansion.
  | Analytical far-field extrapolation by fixed multipoles:
  | Hartree multipole sum: apparent total charge =  -0.290274E-03
  Summing up the Hartree potential.
  Time summed over all CPUs for potential: real work        0.284 s, elapsed        0.284 s
  | RMS charge density error from multipole expansion :   0.137936E-01

  Integrating Hamiltonian matrix: batch-based integration.
  Time summed over all CPUs for integration: real work        0.493 s, elapsed        0.493 s

  Updating Kohn-Sham eigenvalues and eigenvectors using ELSI and the ELPA eigensolver.
  Finished Cholesky decomposition
  | Time :     0.000 s
  Finished transformation to standard eigenproblem
  | Time :     0.000 s
  Starting LAPACK eigensolver
  Finished solving standard eigenproblem
  | Time :     0.001 s
  Finished back-transformation of eigenvectors
  | Time :     0.000 s

  Obtaining occupation numbers and chemical potential using ELSI.
  | Chemical potential (Fermi level):    -3.29145444eV
  Highest occupied state (VBM) at     -6.47391619 eV
  | Occupation number:      2.00000000

  Lowest unoccupied state (CBM) at    -1.97530565 eV
  | Occupation number:      0.00000000

  Overall HOMO-LUMO gap:      4.49861054 eV.

  Checking to see if s.c.f. parameters should be adjusted.

  Total energy components:
  | Sum of eigenvalues            :        -181.76048925 Ha       -4945.95455994 eV
  | XC energy correction          :         -42.47598814 Ha       -1155.83044518 eV
  | XC potential correction       :          54.61235138 Ha        1486.07769186 eV
  | Free-atom electrostatic energy:        -146.86064039 Ha       -3996.28135365 eV
  | Hartree energy correction     :          -7.00964405 Ha        -190.74211932 eV
  | vdW energy correction         :           0.00000000 Ha           0.00000000 eV
  | Entropy correction            :           0.00000000 Ha           0.00000000 eV
  | ---------------------------
  | Total energy                  :        -323.49441045 Ha       -8802.73078623 eV
  | Total energy, T -> 0          :        -323.49441045 Ha       -8802.73078623 eV  <-- do not rely on this value for anything but (periodic) metals
  | Electronic free energy        :        -323.49441045 Ha       -8802.73078623 eV

  Derived energy quantities:
  | Kinetic energy                :         323.61115605 Ha        8805.90759585 eV
  | Electrostatic energy          :        -604.62957836 Ha      -16452.80793690 eV
  | Energy correction for multipole
  | error in Hartree potential    :           0.02578897 Ha           0.70175370 eV
  | Sum of eigenvalues per atom                           :        -380.45804307 eV
  | Total energy (T->0) per atom                          :        -677.13313740 eV  <-- do not rely on this value for anything but (periodic) metals
  | Electronic free energy per atom                       :        -677.13313740 eV

  Self-consistency convergence accuracy:
  | Change of charge density      :  0.3672E+00
  | Change of sum of eigenvalues  :  0.9831E+02 eV
  | Change of total energy        :  0.2167E+01 eV

  End self-consistency iteration #     2       :  max(cpu_time)    wall_clock(cpu1)
  | Time for this iteration                    :        1.183 s           1.184 s
  | Charge density update                      :        0.388 s           0.388 s
  | Density mixing                             :        0.007 s           0.007 s
  | Hartree multipole update                   :        0.009 s           0.009 s
  | Hartree multipole summation                :        0.284 s           0.284 s
  | Integration                                :        0.493 s           0.494 s
  | Solution of K.-S. eqns.                    :        0.002 s           0.002 s
  | Total energy evaluation                    :        0.000 s           0.000 s

  Partial memory accounting:
  | Current value for overall tracked memory usage on task 0  :           0.166 MB
  | Peak value for overall tracked memory usage on task 0     :           0.695 MB after allocating gradient_basis_wave
  | Largest tracked array allocation on task 0 so far         :           0.397 MB  when allocating gradient_basis_wave
  Note:  These values currently only include a subset of arrays which are explicitly tracked.
  The "true" memory usage will be greater.
------------------------------------------------------------

------------------------------------------------------------
          Begin self-consistency iteration #    3

  Date     :  20200710, Time     :  145939.166
------------------------------------------------------------
  Evaluating new KS density.
  Integration grid: deviation in total charge (<rho> - N_e) =   7.105427E-15
  Pulay mixing of updated and previous charge densities.

  Evaluating partitioned Hartree potential by multipole expansion.
  | Analytical far-field extrapolation by fixed multipoles:
  | Hartree multipole sum: apparent total charge =  -0.386433E-03
  Summing up the Hartree potential.
  Time summed over all CPUs for potential: real work        0.283 s, elapsed        0.283 s
  | RMS charge density error from multipole expansion :   0.217783E-01

  Integrating Hamiltonian matrix: batch-based integration.
  Time summed over all CPUs for integration: real work        0.495 s, elapsed        0.495 s

  Updating Kohn-Sham eigenvalues and eigenvectors using ELSI and the ELPA eigensolver.
  Finished Cholesky decomposition
  | Time :     0.000 s
  Finished transformation to standard eigenproblem
  | Time :     0.000 s
  Starting LAPACK eigensolver
  Finished solving standard eigenproblem
  | Time :     0.002 s
  Finished back-transformation of eigenvectors
  | Time :     0.000 s

  Obtaining occupation numbers and chemical potential using ELSI.
  | Chemical potential (Fermi level):    -2.70064797eV
  Highest occupied state (VBM) at     -5.79209032 eV
  | Occupation number:      2.00000000

  Lowest unoccupied state (CBM) at    -1.25004690 eV
  | Occupation number:      0.00000000

  Overall HOMO-LUMO gap:      4.54204342 eV.

  Total energy components:
  | Sum of eigenvalues            :        -180.40751041 Ha       -4909.13813256 eV
  | XC energy correction          :         -42.62933715 Ha       -1160.00328425 eV
  | XC potential correction       :          54.80801251 Ha        1491.40190196 eV
  | Free-atom electrostatic energy:        -146.86064039 Ha       -3996.28135365 eV
  | Hartree energy correction     :          -8.39142998 Ha        -228.34242762 eV
  | vdW energy correction         :           0.00000000 Ha           0.00000000 eV
  | Entropy correction            :           0.00000000 Ha           0.00000000 eV
  | ---------------------------
  | Total energy                  :        -323.48090543 Ha       -8802.36329612 eV
  | Total energy, T -> 0          :        -323.48090543 Ha       -8802.36329612 eV  <-- do not rely on this value for anything but (periodic) metals
  | Electronic free energy        :        -323.48090543 Ha       -8802.36329612 eV

  Derived energy quantities:
  | Kinetic energy                :         323.19760567 Ha        8794.65431742 eV
  | Electrostatic energy          :        -604.04917395 Ha      -16437.01432929 eV
  | Energy correction for multipole
  | error in Hartree potential    :           0.03628578 Ha           0.98738623 eV
  | Sum of eigenvalues per atom                           :        -377.62601020 eV
  | Total energy (T->0) per atom                          :        -677.10486893 eV  <-- do not rely on this value for anything but (periodic) metals
  | Electronic free energy per atom                       :        -677.10486893 eV

  Self-consistency convergence accuracy:
  | Change of charge density      :  0.2066E+00
  | Change of sum of eigenvalues  :  0.3682E+02 eV
  | Change of total energy        :  0.3675E+00 eV

  End self-consistency iteration #     3       :  max(cpu_time)    wall_clock(cpu1)
  | Time for this iteration                    :        1.184 s           1.186 s
  | Charge density update                      :        0.387 s           0.387 s
  | Density mixing                             :        0.008 s           0.009 s
  | Hartree multipole update                   :        0.009 s           0.009 s
  | Hartree multipole summation                :        0.283 s           0.283 s
  | Integration                                :        0.494 s           0.495 s
  | Solution of K.-S. eqns.                    :        0.002 s           0.002 s
  | Total energy evaluation                    :        0.000 s           0.000 s

  Partial memory accounting:
  | Current value for overall tracked memory usage on task 0  :           0.166 MB
  | Peak value for overall tracked memory usage on task 0     :           0.695 MB after allocating gradient_basis_wave
  | Largest tracked array allocation on task 0 so far         :           0.397 MB  when allocating gradient_basis_wave
  Note:  These values currently only include a subset of arrays which are explicitly tracked.
  The "true" memory usage will be greater.
------------------------------------------------------------

------------------------------------------------------------
          Begin self-consistency iteration #    4

  Date     :  20200710, Time     :  145940.352
------------------------------------------------------------
  Evaluating new KS density.
  Integration grid: deviation in total charge (<rho> - N_e) =   2.131628E-14
  Pulay mixing of updated and previous charge densities.

  Evaluating partitioned Hartree potential by multipole expansion.
  | Analytical far-field extrapolation by fixed multipoles:
  | Hartree multipole sum: apparent total charge =  -0.418478E-03
  Summing up the Hartree potential.
  Time summed over all CPUs for potential: real work        0.283 s, elapsed        0.283 s
  | RMS charge density error from multipole expansion :   0.251199E-01

  Integrating Hamiltonian matrix: batch-based integration.
  Time summed over all CPUs for integration: real work        0.494 s, elapsed        0.494 s

  Updating Kohn-Sham eigenvalues and eigenvectors using ELSI and the ELPA eigensolver.
  Finished Cholesky decomposition
  | Time :     0.000 s
  Finished transformation to standard eigenproblem
  | Time :     0.000 s
  Starting LAPACK eigensolver
  Finished solving standard eigenproblem
  | Time :     0.002 s
  Finished back-transformation of eigenvectors
  | Time :     0.000 s

  Obtaining occupation numbers and chemical potential using ELSI.
  | Chemical potential (Fermi level):    -2.60766842eV
  Highest occupied state (VBM) at     -5.58211172 eV
  | Occupation number:      2.00000000

  Lowest unoccupied state (CBM) at    -1.15038251 eV
  | Occupation number:      0.00000000

  Overall HOMO-LUMO gap:      4.43172921 eV.

  Total energy components:
  | Sum of eigenvalues            :        -180.26221562 Ha       -4905.18446004 eV
  | XC energy correction          :         -42.66636861 Ha       -1161.01096149 eV
  | XC potential correction       :          54.85461856 Ha        1492.67011729 eV
  | Free-atom electrostatic energy:        -146.86064039 Ha       -3996.28135365 eV
  | Hartree energy correction     :          -8.54527143 Ha        -232.52866660 eV
  | vdW energy correction         :           0.00000000 Ha           0.00000000 eV
  | Entropy correction            :           0.00000000 Ha           0.00000000 eV
  | ---------------------------
  | Total energy                  :        -323.47987749 Ha       -8802.33532449 eV
  | Total energy, T -> 0          :        -323.47987749 Ha       -8802.33532449 eV  <-- do not rely on this value for anything but (periodic) metals
  | Electronic free energy        :        -323.47987749 Ha       -8802.33532449 eV

  Derived energy quantities:
  | Kinetic energy                :         322.81089530 Ha        8784.13139283 eV
  | Electrostatic energy          :        -603.62440418 Ha      -16425.45575582 eV
  | Energy correction for multipole
  | error in Hartree potential    :           0.04021101 Ha           1.09419727 eV
  | Sum of eigenvalues per atom                           :        -377.32188154 eV
  | Total energy (T->0) per atom                          :        -677.10271727 eV  <-- do not rely on this value for anything but (periodic) metals
  | Electronic free energy per atom                       :        -677.10271727 eV

  Self-consistency convergence accuracy:
  | Change of charge density      :  0.6592E-01
  | Change of sum of eigenvalues  :  0.3954E+01 eV
  | Change of total energy        :  0.2797E-01 eV

  End self-consistency iteration #     4       :  max(cpu_time)    wall_clock(cpu1)
  | Time for this iteration                    :        1.185 s           1.187 s
  | Charge density update                      :        0.387 s           0.388 s
  | Density mixing                             :        0.010 s           0.010 s
  | Hartree multipole update                   :        0.009 s           0.008 s
  | Hartree multipole summation                :        0.283 s           0.284 s
  | Integration                                :        0.494 s           0.494 s
  | Solution of K.-S. eqns.                    :        0.002 s           0.002 s
  | Total energy evaluation                    :        0.000 s           0.000 s

  Partial memory accounting:
  | Current value for overall tracked memory usage on task 0  :           0.166 MB
  | Peak value for overall tracked memory usage on task 0     :           0.696 MB after allocating gradient_basis_wave
  | Largest tracked array allocation on task 0 so far         :           0.397 MB  when allocating gradient_basis_wave
  Note:  These values currently only include a subset of arrays which are explicitly tracked.
  The "true" memory usage will be greater.
------------------------------------------------------------

------------------------------------------------------------
          Begin self-consistency iteration #    5

  Date     :  20200710, Time     :  145941.539
------------------------------------------------------------
  Evaluating new KS density.
  Integration grid: deviation in total charge (<rho> - N_e) =  -4.263256E-14
  Pulay mixing of updated and previous charge densities.

  Evaluating partitioned Hartree potential by multipole expansion.
  | Analytical far-field extrapolation by fixed multipoles:
  | Hartree multipole sum: apparent total charge =  -0.412573E-03
  Summing up the Hartree potential.
  Time summed over all CPUs for potential: real work        0.283 s, elapsed        0.283 s
  | RMS charge density error from multipole expansion :   0.248857E-01

  Integrating Hamiltonian matrix: batch-based integration.
  Time summed over all CPUs for integration: real work        0.494 s, elapsed        0.494 s

  Updating Kohn-Sham eigenvalues and eigenvectors using ELSI and the ELPA eigensolver.
  Finished Cholesky decomposition
  | Time :     0.000 s
  Finished transformation to standard eigenproblem
  | Time :     0.000 s
  Starting LAPACK eigensolver
  Finished solving standard eigenproblem
  | Time :     0.001 s
  Finished back-transformation of eigenvectors
  | Time :     0.000 s

  Obtaining occupation numbers and chemical potential using ELSI.
  | Chemical potential (Fermi level):    -2.67001291eV
  Highest occupied state (VBM) at     -5.69863774 eV
  | Occupation number:      2.00000000

  Lowest unoccupied state (CBM) at    -1.25270016 eV
  | Occupation number:      0.00000000

  Overall HOMO-LUMO gap:      4.44593758 eV.

  Total energy components:
  | Sum of eigenvalues            :        -180.47985981 Ha       -4911.10685988 eV
  | XC energy correction          :         -42.64011575 Ha       -1160.29658467 eV
  | XC potential correction       :          54.82054336 Ha        1491.74288377 eV
  | Free-atom electrostatic energy:        -146.86064039 Ha       -3996.28135365 eV
  | Hartree energy correction     :          -8.31950856 Ha        -226.38534631 eV
  | vdW energy correction         :           0.00000000 Ha           0.00000000 eV
  | Entropy correction            :           0.00000000 Ha           0.00000000 eV
  | ---------------------------
  | Total energy                  :        -323.47958116 Ha       -8802.32726074 eV
  | Total energy, T -> 0          :        -323.47958116 Ha       -8802.32726074 eV  <-- do not rely on this value for anything but (periodic) metals
  | Electronic free energy        :        -323.47958116 Ha       -8802.32726074 eV

  Derived energy quantities:
  | Kinetic energy                :         322.68338620 Ha        8780.66169364 eV
  | Electrostatic energy          :        -603.52285161 Ha      -16422.69236972 eV
  | Energy correction for multipole
  | error in Hartree potential    :           0.03955761 Ha           1.07641743 eV
  | Sum of eigenvalues per atom                           :        -377.77745076 eV
  | Total energy (T->0) per atom                          :        -677.10209698 eV  <-- do not rely on this value for anything but (periodic) metals
  | Electronic free energy per atom                       :        -677.10209698 eV

  Self-consistency convergence accuracy:
  | Change of charge density      :  0.2057E-01
  | Change of sum of eigenvalues  : -0.5922E+01 eV
  | Change of total energy        :  0.8064E-02 eV

  End self-consistency iteration #     5       :  max(cpu_time)    wall_clock(cpu1)
  | Time for this iteration                    :        1.187 s           1.188 s
  | Charge density update                      :        0.387 s           0.388 s
  | Density mixing                             :        0.011 s           0.011 s
  | Hartree multipole update                   :        0.009 s           0.009 s
  | Hartree multipole summation                :        0.283 s           0.283 s
  | Integration                                :        0.494 s           0.494 s
  | Solution of K.-S. eqns.                    :        0.002 s           0.003 s
  | Total energy evaluation                    :        0.000 s           0.000 s

  Partial memory accounting:
  | Current value for overall tracked memory usage on task 0  :           0.166 MB
  | Peak value for overall tracked memory usage on task 0     :           0.696 MB after allocating gradient_basis_wave
  | Largest tracked array allocation on task 0 so far         :           0.397 MB  when allocating gradient_basis_wave
  Note:  These values currently only include a subset of arrays which are explicitly tracked.
  The "true" memory usage will be greater.
------------------------------------------------------------

------------------------------------------------------------
          Begin self-consistency iteration #    6

  Date     :  20200710, Time     :  145942.728
------------------------------------------------------------
  Evaluating new KS density.
  Integration grid: deviation in total charge (<rho> - N_e) =   7.105427E-15
  Pulay mixing of updated and previous charge densities.

  Evaluating partitioned Hartree potential by multipole expansion.
  | Analytical far-field extrapolation by fixed multipoles:
  | Hartree multipole sum: apparent total charge =  -0.417014E-03
  Summing up the Hartree potential.
  Time summed over all CPUs for potential: real work        0.283 s, elapsed        0.283 s
  | RMS charge density error from multipole expansion :   0.253302E-01

  Integrating Hamiltonian matrix: batch-based integration.
  Time summed over all CPUs for integration: real work        0.493 s, elapsed        0.493 s

  Updating Kohn-Sham eigenvalues and eigenvectors using ELSI and the ELPA eigensolver.
  Finished Cholesky decomposition
  | Time :     0.000 s
  Finished transformation to standard eigenproblem
  | Time :     0.000 s
  Starting LAPACK eigensolver
  Finished solving standard eigenproblem
  | Time :     0.001 s
  Finished back-transformation of eigenvectors
  | Time :     0.000 s

  Obtaining occupation numbers and chemical potential using ELSI.
  | Chemical potential (Fermi level):    -2.65755516eV
  Highest occupied state (VBM) at     -5.66309083 eV
  | Occupation number:      2.00000000

  Lowest unoccupied state (CBM) at    -1.25295538 eV
  | Occupation number:      0.00000000

  Overall HOMO-LUMO gap:      4.41013544 eV.

  Total energy components:
  | Sum of eigenvalues            :        -180.45583022 Ha       -4910.45298142 eV
  | XC energy correction          :         -42.64208243 Ha       -1160.35010098 eV
  | XC potential correction       :          54.82307112 Ha        1491.81166771 eV
  | Free-atom electrostatic energy:        -146.86064039 Ha       -3996.28135365 eV
  | Hartree energy correction     :          -8.34405684 Ha        -227.05333902 eV
  | vdW energy correction         :           0.00000000 Ha           0.00000000 eV
  | Entropy correction            :           0.00000000 Ha           0.00000000 eV
  | ---------------------------
  | Total energy                  :        -323.47953877 Ha       -8802.32610736 eV
  | Total energy, T -> 0          :        -323.47953877 Ha       -8802.32610736 eV  <-- do not rely on this value for anything but (periodic) metals
  | Electronic free energy        :        -323.47953877 Ha       -8802.32610736 eV

  Derived energy quantities:
  | Kinetic energy                :         322.61873431 Ha        8778.90242624 eV
  | Electrostatic energy          :        -603.45619065 Ha      -16420.87843262 eV
  | Energy correction for multipole
  | error in Hartree potential    :           0.03997183 Ha           1.08768892 eV
  | Sum of eigenvalues per atom                           :        -377.72715242 eV
  | Total energy (T->0) per atom                          :        -677.10200826 eV  <-- do not rely on this value for anything but (periodic) metals
  | Electronic free energy per atom                       :        -677.10200826 eV

  Self-consistency convergence accuracy:
  | Change of charge density      :  0.1050E-01
  | Change of sum of eigenvalues  :  0.6539E+00 eV
  | Change of total energy        :  0.1153E-02 eV

  End self-consistency iteration #     6       :  max(cpu_time)    wall_clock(cpu1)
  | Time for this iteration                    :        1.187 s           1.187 s
  | Charge density update                      :        0.388 s           0.387 s
  | Density mixing                             :        0.012 s           0.012 s
  | Hartree multipole update                   :        0.008 s           0.009 s
  | Hartree multipole summation                :        0.283 s           0.283 s
  | Integration                                :        0.493 s           0.493 s
  | Solution of K.-S. eqns.                    :        0.002 s           0.003 s
  | Total energy evaluation                    :        0.000 s           0.000 s

  Partial memory accounting:
  | Current value for overall tracked memory usage on task 0  :           0.166 MB
  | Peak value for overall tracked memory usage on task 0     :           0.696 MB after allocating gradient_basis_wave
  | Largest tracked array allocation on task 0 so far         :           0.397 MB  when allocating gradient_basis_wave
  Note:  These values currently only include a subset of arrays which are explicitly tracked.
  The "true" memory usage will be greater.
------------------------------------------------------------

------------------------------------------------------------
          Begin self-consistency iteration #    7

  Date     :  20200710, Time     :  145943.917
------------------------------------------------------------
  Evaluating new KS density.
  Integration grid: deviation in total charge (<rho> - N_e) =   5.684342E-14
  Pulay mixing of updated and previous charge densities.

  Evaluating partitioned Hartree potential by multipole expansion.
  | Analytical far-field extrapolation by fixed multipoles:
  | Hartree multipole sum: apparent total charge =  -0.417907E-03
  Summing up the Hartree potential.
  Time summed over all CPUs for potential: real work        0.283 s, elapsed        0.283 s
  | RMS charge density error from multipole expansion :   0.254295E-01

  Integrating Hamiltonian matrix: batch-based integration.
  Time summed over all CPUs for integration: real work        0.494 s, elapsed        0.494 s

  Updating Kohn-Sham eigenvalues and eigenvectors using ELSI and the ELPA eigensolver.
  Finished Cholesky decomposition
  | Time :     0.000 s
  Finished transformation to standard eigenproblem
  | Time :     0.000 s
  Starting LAPACK eigensolver
  Finished solving standard eigenproblem
  | Time :     0.001 s
  Finished back-transformation of eigenvectors
  | Time :     0.000 s

[...]
  |   Hirshfeld dipole moment :      0.05974434
  |   Hirshfeld second moments:      0.01202470      -0.03035853      -0.01668785
  |                                 -0.03035853      -0.02755577       0.00514945
  |                                 -0.01668785       0.00514945      -0.02128626
  ----------------------------------------------------------------------
  | Atom    12: O
  |   Hirshfeld charge        :     -0.16645275
  |   Free atom volume        :     23.61338643
  |   Hirshfeld volume        :     21.30561439
  |   Hirshfeld dipole vector :      0.03279752       0.02642715      -0.00109430
  |   Hirshfeld dipole moment :      0.04213394
  |   Hirshfeld second moments:      0.04944424      -0.01700780      -0.02225068
  |                                 -0.01700780       0.04015690       0.04633327
  |                                 -0.02225068       0.04633327       0.05051097
  ----------------------------------------------------------------------
  | Atom    13: H
  |   Hirshfeld charge        :      0.17248284
  |   Free atom volume        :      9.95071624
  |   Hirshfeld volume        :      6.44264541
  |   Hirshfeld dipole vector :      0.08417394      -0.05105183      -0.07755032
  |   Hirshfeld dipole moment :      0.12532196
  |   Hirshfeld second moments:      0.11565433       0.00037564      -0.00096690
  |                                  0.00037564       0.10462101       0.01955437
  |                                 -0.00096690       0.01955437       0.10182758
  ----------------------------------------------------------------------


  Total energy components:
  | Sum of eigenvalues            :        -180.45537793 Ha       -4910.44067403 eV
  | XC energy correction          :         -42.63876598 Ha       -1160.25985571 eV
  | XC potential correction       :          54.81886384 Ha        1491.69718182 eV
  | Free-atom electrostatic energy:        -146.86064039 Ha       -3996.28135365 eV
  | Hartree energy correction     :          -8.34359435 Ha        -227.04075409 eV
  | vdW energy correction         :          -0.00331984 Ha          -0.09033756 eV
  | Entropy correction            :           0.00000000 Ha           0.00000000 eV
  | ---------------------------
  | Total energy                  :        -323.48283466 Ha       -8802.41579322 eV
  | Total energy, T -> 0          :        -323.48283466 Ha       -8802.41579322 eV  <-- do not rely on this value for anything but (periodic) metals
  | Electronic free energy        :        -323.48283466 Ha       -8802.41579322 eV

  Derived energy quantities:
  | Kinetic energy                :         322.58126059 Ha        8777.88271449 eV
  | Electrostatic energy          :        -603.42200943 Ha      -16419.94831444 eV
  | Energy correction for multipole
  | error in Hartree potential    :           0.04000388 Ha           1.08856104 eV
  | Sum of eigenvalues per atom                           :        -377.72620569 eV
  | Total energy (T->0) per atom                          :        -677.10890717 eV  <-- do not rely on this value for anything but (periodic) metals
  | Electronic free energy per atom                       :        -677.10890717 eV

  atomic forces [eV/Ang]:
  -----------------------
  atom #    1
   Hellmann-Feynman              :  0.823427E+00  0.259694E-01  0.109284E+01
   Ionic forces                  :  0.000000E+00  0.000000E+00  0.000000E+00
   Multipole                     :  0.159644E+00  0.384691E+00 -0.307045E+00
   Pulay + GGA                   : -0.117275E+01  0.101787E+00 -0.130254E+01
   Van der Waals                 :  0.210611E-02  0.283806E-02 -0.664095E-03
   ----------------------------------------------------------------
   Total forces(   1)            : -0.187575E+00  0.515285E+00 -0.517409E+00
  atom #    2
   Hellmann-Feynman              :  0.335276E+00  0.398689E-01  0.106970E+00
   Ionic forces                  :  0.000000E+00  0.000000E+00  0.000000E+00
   Multipole                     :  0.166148E+00  0.343563E-01  0.243689E-02
   Pulay + GGA                   : -0.122829E+00  0.253345E-01  0.475911E-01
   Van der Waals                 :  0.568095E-02 -0.549280E-02 -0.574758E-02
   ----------------------------------------------------------------
   Total forces(   2)            :  0.384276E+00  0.940669E-01  0.151251E+00
  atom #    3
   Hellmann-Feynman              : -0.650481E+01 -0.923632E+01 -0.379642E+00
   Ionic forces                  :  0.000000E+00  0.000000E+00  0.000000E+00
   Multipole                     : -0.149944E+00  0.788337E-01 -0.861774E+00
   Pulay + GGA                   :  0.690593E+01  0.888626E+01  0.185297E+01
   Van der Waals                 :  0.341642E-02 -0.219857E-02 -0.956539E-02
   ----------------------------------------------------------------
   Total forces(   3)            :  0.254590E+00 -0.273429E+00  0.601985E+00
  atom #    4
   Hellmann-Feynman              :  0.118127E+00  0.881877E-01 -0.216404E+00
   Ionic forces                  :  0.000000E+00  0.000000E+00  0.000000E+00
   Multipole                     : -0.384595E-01  0.710399E-01 -0.876849E-01
   Pulay + GGA                   :  0.337923E-01 -0.247810E+00  0.474961E-01
   Van der Waals                 : -0.612821E-03 -0.914803E-02 -0.512789E-02
   ----------------------------------------------------------------
   Total forces(   4)            :  0.112847E+00 -0.977310E-01 -0.261720E+00
  atom #    5
   Hellmann-Feynman              :  0.580778E-01  0.306526E+00 -0.257001E+00
   Ionic forces                  :  0.000000E+00  0.000000E+00  0.000000E+00
   Multipole                     :  0.376763E-01  0.639594E-02 -0.112722E+00
   Pulay + GGA                   : -0.185378E+00 -0.312148E-01  0.122645E+00
   Van der Waals                 : -0.391850E-02  0.570977E-04  0.597122E-02
   ----------------------------------------------------------------
   Total forces(   5)            : -0.935422E-01  0.281765E+00 -0.241107E+00
  atom #    6
   Hellmann-Feynman              : -0.472031E-02 -0.365657E+00  0.302212E+00
   Ionic forces                  :  0.000000E+00  0.000000E+00  0.000000E+00
   Multipole                     : -0.396142E-01  0.587202E+00  0.266000E+00
   Pulay + GGA                   :  0.279281E+00 -0.673049E+00 -0.373995E+00
   Van der Waals                 : -0.171342E-02  0.465032E-02 -0.376062E-02
   ----------------------------------------------------------------
   Total forces(   6)            :  0.233233E+00 -0.446853E+00  0.190456E+00
  atom #    7
   Hellmann-Feynman              : -0.240954E+00 -0.669587E-01 -0.381442E-01
   Ionic forces                  :  0.000000E+00  0.000000E+00  0.000000E+00
   Multipole                     : -0.121540E+00  0.479955E-01  0.269357E-01
   Pulay + GGA                   :  0.113389E+00 -0.419949E-02  0.213055E-01
   Van der Waals                 : -0.315408E-02  0.359167E-02  0.936223E-02
   ----------------------------------------------------------------
   Total forces(   7)            : -0.252259E+00 -0.195710E-01  0.194592E-01
  atom #    8
   Hellmann-Feynman              :  0.148051E-01 -0.110842E-01  0.177968E+00
   Ionic forces                  :  0.000000E+00  0.000000E+00  0.000000E+00
   Multipole                     :  0.186532E-01  0.629965E-01  0.117454E+00
   Pulay + GGA                   : -0.505919E-01 -0.512866E-01 -0.115598E+00
   Van der Waals                 : -0.280985E-02  0.115556E-01  0.683236E-03
   ----------------------------------------------------------------
   Total forces(   8)            : -0.199433E-01  0.121813E-01  0.180507E+00
  atom #    9
   Hellmann-Feynman              :  0.129975E+00  0.599680E-01 -0.176251E+00
   Ionic forces                  :  0.000000E+00  0.000000E+00  0.000000E+00
   Multipole                     :  0.167581E-01  0.125990E+00 -0.113570E-01
   Pulay + GGA                   : -0.267271E-01 -0.762258E-01  0.612727E-01
   Van der Waals                 : -0.946283E-04  0.588377E-02  0.704297E-02
   ----------------------------------------------------------------
   Total forces(   9)            :  0.119911E+00  0.115616E+00 -0.119292E+00
  atom #   10
   Hellmann-Feynman              :  0.298892E+01  0.441754E+01  0.158136E+01
   Ionic forces                  :  0.000000E+00  0.000000E+00  0.000000E+00
   Multipole                     :  0.142021E-01 -0.662145E-01  0.295294E+00
   Pulay + GGA                   : -0.209866E+01 -0.259337E+01  0.189813E+00
   Van der Waals                 :  0.202166E-02 -0.111006E-01 -0.211371E-02
   ----------------------------------------------------------------
   Total forces(  10)            :  0.906479E+00  0.174685E+01  0.206436E+01
  atom #   11
   Hellmann-Feynman              :  0.426986E+01 -0.248840E+01  0.138777E+02
   Ionic forces                  :  0.000000E+00  0.000000E+00  0.000000E+00
   Multipole                     :  0.784172E-01 -0.591602E+00  0.713032E+00
   Pulay + GGA                   : -0.379309E+01  0.400253E+01 -0.134007E+02
   Van der Waals                 : -0.258161E-02 -0.106675E-01  0.743751E-02
   ----------------------------------------------------------------
   Total forces(  11)            :  0.552601E+00  0.911865E+00  0.119744E+01
  atom #   12
   Hellmann-Feynman              : -0.135788E+02 -0.747309E+01  0.753521E+00
   Ionic forces                  :  0.000000E+00  0.000000E+00  0.000000E+00
   Multipole                     : -0.971334E+00 -0.128869E+01 -0.155290E+00
   Pulay + GGA                   :  0.133350E+02  0.629881E+01 -0.258154E+01
   Van der Waals                 :  0.193455E-02  0.105080E-01  0.544851E-03
   ----------------------------------------------------------------
   Total forces(  12)            : -0.121318E+01 -0.245247E+01 -0.198276E+01
  atom #   13
   Hellmann-Feynman              : -0.525432E+00 -0.437863E+00 -0.152584E+01
   Ionic forces                  :  0.000000E+00  0.000000E+00  0.000000E+00
   Multipole                     :  0.609675E-01 -0.350548E-01 -0.419278E-01
   Pulay + GGA                   : -0.330900E+00  0.847824E-01  0.281805E+00
   Van der Waals                 : -0.274788E-03 -0.477127E-03 -0.406272E-02
   ----------------------------------------------------------------
   Total forces(  13)            : -0.795640E+00 -0.388612E+00 -0.129003E+01

  Timings for VdW correction (Tkatchenko-Scheffler 2009 or later):
  | CPU time:        0.090 s, Wall clock time:        0.091 s.
  Removing unitary transformations (pure translations, rotations) from forces on atoms.
  Atomic forces before filtering:
  | Net force on center of mass :   0.179863E-02 -0.103812E-02 -0.685972E-02 eV/A
  | Net torque on center of mass:   0.523393E-02  0.255676E-02  0.832067E-02 eV
  Atomic forces after filtering:
  | Net force on center of mass :   0.356812E-15 -0.624421E-15  0.356812E-15 eV/A
  | Net torque on center of mass:  -0.113290E-14 -0.660859E-15  0.755268E-15 eV

  Energy and forces in a compact form:
  | Total energy uncorrected      :         -0.880241579321556E+04 eV
  | Total energy corrected        :         -0.880241579321556E+04 eV  <-- do not rely on this value for anything but (periodic) metals
  | Electronic free energy        :         -0.880241579321556E+04 eV
  Total atomic forces (unitary forces cleaned) [eV/Ang]:
  |   1         -0.187696450723455E+00          0.515264345034001E+00         -0.516845193479252E+00
  |   2          0.384154566054979E+00          0.937399505987650E-01          0.151948024020816E+00
  |   3          0.254640958411214E+00         -0.273487872274411E+00          0.602490798789592E+00
  |   4          0.113164819082742E+00         -0.976730021788737E-01         -0.261381981013480E+00
  |   5         -0.934392491120255E-01          0.281404831962355E+00         -0.240493783127710E+00
  |   6          0.233376587717448E+00         -0.446644983044860E+00          0.190805473359078E+00
  |   7         -0.252110004055294E+00         -0.190552860322017E-01          0.196719805443748E-01
  |   8         -0.199219410453027E-01          0.124135402995243E-01          0.180898526217918E+00
  |   9          0.120368406750451E+00          0.115660399926147E+00         -0.119008968224233E+00
  |  10          0.905905368718894E+00          0.174702683176651E+01          0.206503027750475E+01
  |  11          0.551810818732951E+00          0.912103021736799E+00          0.119818635292959E+01
  |  12         -0.121390781814785E+01         -0.245216937742767E+01         -0.198206968770183E+01
  |  13         -0.796346062384747E+00         -0.388582400366082E+00         -0.128923181981962E+01

  ------------------------------------ 
  Start decomposition of the XC Energy 
  ------------------------------------ 
  X and C from original XC functional choice 
  Hartree-Fock Energy :          0.000000000 Ha              0.000000000 eV
  X Energy            :        -41.037893138 Ha          -1116.697889257 eV
  C Energy            :         -1.600872842 Ha            -43.561966451 eV
  Total XC Energy     :        -42.638765981 Ha          -1160.259855708 eV
  ------------------------------------ 
  LDA X and C from self-consistent density 
  X Energy LDA        :        -37.256712955 Ha          -1013.806741426 eV
  C Energy LDA        :         -3.138675422 Ha            -85.407703733 eV
  ------------------------------------ 
  End decomposition of the XC Energy 
  ------------------------------------ 

------------------------------------------------------------

------------------------------------------------------------------------------
  Final output of selected total energy values:

  The following output summarizes some interesting total energy values
  at the end of a run (AFTER all relaxation, molecular dynamics, etc.).

  | Total energy of the DFT / Hartree-Fock s.c.f. calculation      :          -8802.415793216 eV
  | Final zero-broadening corrected energy (caution - metals only) :          -8802.415793216 eV
  | For reference only, the value of 1 Hartree used in FHI-aims is :             27.211384500 eV

  Before relying on these values, please be sure to understand exactly which
  total energy value is referred to by a given number. Different objects may
  all carry the same name 'total energy'. Definitions:

  Total energy of the DFT / Hartree-Fock s.c.f. calculation:
  | Note that this energy does not include ANY quantities calculated after the
  | s.c.f. cycle, in particular not ANY RPA, MP2, etc. many-body perturbation terms.

  Final zero-broadening corrected energy:
  | For metallic systems only, a broadening of the occupation numbers at the Fermi
  | level can be extrapolated back to zero broadening by an electron-gas inspired
  | formula. For all systems that are not real metals, this value can be
  | meaningless and should be avoided.

------------------------------------------------------------------------------
  Methods described in the following list of references were used in this FHI-aims run.
  If you publish the results, please make sure to cite these reference if they apply.
  FHI-aims is an academic code, and for our developers (often, Ph.D. students
  and postdocs), scientific credit in the community is essential.
  Thank you for helping us!

  For any use of FHI-aims, please cite:

    Volker Blum, Ralf Gehrke, Felix Hanke, Paula Havu, Ville Havu,
    Xinguo Ren, Karsten Reuter, and Matthias Scheffler
    'Ab initio molecular simulations with numeric atom-centered orbitals'
    Computer Physics Communications 180, 2175-2196 (2009)
    http://dx.doi.org/10.1016/j.cpc.2009.06.022


  The scalable eigensolver library ELPA was used in your run.
  ELPA is essential especially for large systems on hundreds or thousands of CPUs.
  For ELPA, please cite:

    Andreas Marek, Volker Blum, Rainer Johanni, Ville Havu, Bruno Lang,
    Thomas Auckenthaler, Alexander Heinecke, Hans-Joachim Bungartz, and Hermann Lederer,
    'The ELPA Library - Scalable Parallel Eigenvalue Solutions
    for Electronic Structure Theory and Computational Science'
    The Journal of Physics: Condensed Matter 26, 213201 (2014).
    http://dx.doi.org/10.1088/0953-8984/26/21/213201


  The ELSI infrastructure was used in your run to solve the Kohn-Sham electronic structure.
  Please check out http://elsi-interchange.org to learn more.
  If scalability is important for your project, please acknowledge ELSI by citing:

    V. W-z. Yu, F. Corsetti, A. Garcia, W. P. Huhn, M. Jacquelin, W. Jia,
    B. Lange, L. Lin, J. Lu, W. Mi, A. Seifitokaldani, A. Vazquez-Mayagoitia,
    C. Yang, H. Yang, and V. Blum
    'ELSI: A unified software interface for Kohn-Sham electronic structure solvers'
    Computer Physics Communications 222, 267-285 (2018).
    http://dx.doi.org/10.1016/j.cpc.2017.09.007


  For the real-space grid partitioning and parallelization used in this calculation, please cite:

    Ville Havu, Volker Blum, Paula Havu, and Matthias Scheffler,
    'Efficient O(N) integration for all-electron electronic structure calculation'
    'using numerically tabulated basis functions'
    Journal of Computational Physics 228, 8367-8379 (2009).
    http://dx.doi.org/10.1016/j.jcp.2009.08.008

  Of course, there are many other important community references, e.g., those cited in the
  above references. Our list is limited to references that describe implementations in the
  FHI-aims code. The reason is purely practical (length of this list) - please credit others as well.

------------------------------------------------------------
          Leaving FHI-aims.
          Date     :  20200710, Time     :  145958.216

          Computational steps:
          | Number of self-consistency cycles          :           16
          | Number of SCF (re)initializations          :            1

          Detailed time accounting                     :  max(cpu_time)    wall_clock(cpu1)
          | Total time                                 :       22.683 s          22.750 s
          | Preparation time                           :        0.145 s           0.149 s
          | Boundary condition initalization           :        0.000 s           0.000 s
          | Grid partitioning                          :        0.111 s           0.112 s
          | Preloading free-atom quantities on grid    :        0.002 s           0.002 s
          | Free-atom superposition energy             :        0.085 s           0.085 s
          | Total time for integrations                :        8.619 s           8.627 s
          | Total time for solution of K.-S. equations :        0.037 s           0.042 s
          | Total time for density & force components  :        7.155 s           7.177 s
          | Total time for mixing                      :        0.217 s           0.221 s
          | Total time for Hartree multipole update    :        0.139 s           0.140 s
          | Total time for Hartree multipole sum       :        5.773 s           5.786 s
          | Total time for total energy evaluation     :        0.003 s           0.004 s
          | Total time for vdW correction              :        0.090 s           0.091 s

          Partial memory accounting:
          | Residual value for overall tracked memory usage across tasks :           0.000 MB (should be 0.000 MB)
          | Peak values for overall tracked memory usage (after allocating hessian_basis_wave):
          |   Minimum:        1.622 MB (on task 1)
          |   Maximum:        1.622 MB (on task 1)
          |   Average:        1.622 MB
          | Largest tracked array allocation (hessian_basis_wave):
          |   Minimum:        0.794 MB (on task 1)
          |   Maximum:        0.794 MB (on task 1)
          |   Average:        0.794 MB
          Note:  These values currently only include a subset of arrays which are explicitly tracked.
          The "true" memory usage will be greater.

          Have a nice day.
------------------------------------------------------------
