  MPI-parallelism will be employed.
------------------------------------------------------------
          Invoking FHI-aims ...
          Version 171221_1
          Compiled on 2019/09/09 at 14:39:39 on host puhti-login2.bullx.

          When using FHI-aims, please cite the following reference:

          Volker Blum, Ralf Gehrke, Felix Hanke, Paula Havu,
          Ville Havu, Xinguo Ren, Karsten Reuter, and Matthias Scheffler,
          'Ab Initio Molecular Simulations with Numeric Atom-Centered Orbitals',
          Computer Physics Communications 180, 2175-2196 (2009)

          For any questions about FHI-aims, please visit the aimsclub website
          with its forums and wiki. Contributions to both the forums and the
          wiki are warmly encouraged - they are for you, and everyone is welcome there.

------------------------------------------------------------



  Date     :  20200815, Time     :  004330.659
  Time zero on CPU 1             :   0.113340000000000E-01  s.
  Internal wall clock time zero  :           366684210.659  s.

  FHI-aims created a unique identifier for this run for later identification
  aims_uuid : A1F81C22-2744-43F6-AB27-58432EEB7823

  Using        1 parallel tasks.
  Task        0 on host r16c11.bullx reporting.

  Performing system and environment tests:
  | Environment variable OMP_NUM_THREADS correctly set to 1.
  | Stacksize not measured: no C compiler
  | Checking for scalapack...
  | Testing pdtran()...
  | All pdtran() tests passed.

  Obtaining array dimensions for all initial allocations:
  
  -----------------------------------------------------------------------
  Parsing control.in (first pass over file, find array dimensions only).
  The contents of control.in will be repeated verbatim below
  unless switched off by setting 'verbatim_writeout .false.' .
  in the first line of control.in .
  -----------------------------------------------------------------------
  
  #########################################################################################
  #
  #  Volker Blum, FHI 2009 : Test run input file control.in for simple H2O
  #
  #########################################################################################
  #
  #  Physical model
  #
    xc                 pbe
    vdw_correction_hirshfeld
    spin               none
    relativistic       none
    charge             0.
  #
  #  SCF convergence
  #
    occupation_type    gaussian 0.01
    mixer              pulay
      n_max_pulay        10
      charge_mix_param   0.2
    sc_accuracy_rho    1E-5
    sc_accuracy_eev    1E-3
    sc_accuracy_etot   1E-6
    sc_accuracy_forces 1E-4
    sc_iter_limit      100
  #
  #  Relaxation
  #
  #  relax_geometry   bfgs 1.e-3
  #
  ################################################################################
  #
  #  FHI-aims code project
  #  VB, Fritz-Haber Institut, 2009
  #
  #  Suggested "light" defaults for H atom (to be pasted into control.in file)
  #  Be sure to double-check any results obtained with these settings for post-processing,
  #  e.g., with the "tight" defaults and larger basis sets.
  #
  ################################################################################
    species        H
  #     global species definitions
      nucleus             1
      mass                1.00794
  #
      l_hartree           4
  #
      cut_pot             3.5  1.5  1.0
      basis_dep_cutoff    1e-4
  #
      radial_base         24 5.0
      radial_multiplier   1
      angular_grids       specified
        division   0.2421   50
        division   0.3822  110
        division   0.4799  194
        division   0.5341  302
  #      division   0.5626  434
  #      division   0.5922  590
  #      division   0.6542  770
  #      division   0.6868 1202
  #      outer_grid  770
        outer_grid  302
  ################################################################################
  #
  #  Definition of "minimal" basis
  #
  ################################################################################
  #     valence basis states
      valence      1  s   1.
  #     ion occupancy
      ion_occ      1  s   0.5
  ################################################################################
  #
  #  Suggested additional basis functions. For production calculations,
  #  uncomment them one after another (the most important basis functions are
  #  listed first).
  #
  #  Basis constructed for dimers: 0.5 A, 0.7 A, 1.0 A, 1.5 A, 2.5 A
  #
  ################################################################################
  #  "First tier" - improvements: -1014.90 meV to -62.69 meV
       hydro 2 s 2.1
       hydro 2 p 3.5
  #  "Second tier" - improvements: -12.89 meV to -1.83 meV
  #     hydro 1 s 0.85
  #     hydro 2 p 3.7
  #     hydro 2 s 1.2
  #     hydro 3 d 7
  #  "Third tier" - improvements: -0.25 meV to -0.12 meV
  #     hydro 4 f 11.2
  #     hydro 3 p 4.8
  #     hydro 4 d 9
  #     hydro 3 s 3.2
  ################################################################################
  #
  #  FHI-aims code project
  #  VB, Fritz-Haber Institut, 2009
  #
  #  Suggested "light" defaults for C atom (to be pasted into control.in file)
  #  Be sure to double-check any results obtained with these settings for post-processing,
  #  e.g., with the "tight" defaults and larger basis sets.
  #
  ################################################################################
    species        C
  #     global species definitions
      nucleus             6
      mass                12.0107
  #
      l_hartree           4
  #
      cut_pot             3.5  1.5  1.0
      basis_dep_cutoff    1e-4
  #
      radial_base         34 5.0
      radial_multiplier   1
      angular_grids specified
        division   0.3326   50
        division   0.5710  110
        division   0.7727  194
        division   0.8772  302
  #      division   0.9334  434
  #      division   0.9625  590
  #      division   0.9924  770
  #      division   1.0230  974
  #      division   1.4589 1202
  #     outer_grid  974
       outer_grid 302
  ################################################################################
  #
  #  Definition of "minimal" basis
  #
  ################################################################################
  #     valence basis states
      valence      2  s   2.
      valence      2  p   2.
  #     ion occupancy
      ion_occ      2  s   1.
      ion_occ      2  p   1.
  ################################################################################
  #
  #  Suggested additional basis functions. For production calculations,
  #  uncomment them one after another (the most important basis functions are
  #  listed first).
  #
  #  Constructed for dimers: 1.0 A, 1.25 A, 1.5 A, 2.0 A, 3.0 A
  #
  ################################################################################
  #  "First tier" - improvements: -1214.57 meV to -155.61 meV
       hydro 2 p 1.7
       hydro 3 d 6
       hydro 2 s 4.9
  #  "Second tier" - improvements: -67.75 meV to -5.23 meV
  #     hydro 4 f 9.8
  #     hydro 3 p 5.2
  #     hydro 3 s 4.3
  #     hydro 5 g 14.4
  #     hydro 3 d 6.2
  #  "Third tier" - improvements: -2.43 meV to -0.60 meV
  #     hydro 2 p 5.6
  #     hydro 2 s 1.4
  #     hydro 3 d 4.9
  #     hydro 4 f 11.2
  #  "Fourth tier" - improvements: -0.39 meV to -0.18 meV
  #     hydro 2 p 2.1
  #     hydro 5 g 16.4
  #     hydro 4 d 13.2
  #     hydro 3 s 13.6
  #     hydro 4 f 17.6
  #  Further basis functions - improvements: -0.08 meV and below
  #     hydro 3 s 2
  #     hydro 3 p 6
  #     hydro 4 d 20
  ################################################################################
  #
  #  FHI-aims code project
  #  VB, Fritz-Haber Institut, 2009
  #
  #  Suggested "light" defaults for N atom (to be pasted into control.in file)
  #  Be sure to double-check any results obtained with these settings for post-processing,
  #  e.g., with the "tight" defaults and larger basis sets.
  #
  ################################################################################
    species        N
  #     global species definitions
      nucleus             7
      mass                14.0067
  #
      l_hartree           4
  #
      cut_pot             3.5  1.5  1.0
      basis_dep_cutoff    1e-4
  #
      radial_base         35 5.0
      radial_multiplier   1
      angular_grids       specified
        division   0.2599   50
        division   0.4601  110
        division   0.5885  194
        division   0.6503  302
  #      division   0.6939  434
  #      division   0.7396  590
  #      division   0.7632  770
  #      division   0.8122  974
  #      division   1.1604 1202
  #      outer_grid  974
        outer_grid  302
  ################################################################################
  #
  #  Definition of "minimal" basis
  #
  ################################################################################
  #     valence basis states
      valence      2  s   2.
      valence      2  p   3.
  #     ion occupancy
      ion_occ      2  s   1.
      ion_occ      2  p   2.
  ################################################################################
  #
  #  Suggested additional basis functions. For production calculations,
  #  uncomment them one after another (the most important basis functions are
  #  listed first).
  #
  #  Constructed for dimers: 1.0 A, 1.1 A, 1.5 A, 2.0 A, 3.0 A
  #
  ################################################################################
  #  "First tier" - improvements: -1193.42 meV to -220.60 meV
       hydro 2 p 1.8
       hydro 3 d 6.8
       hydro 3 s 5.8
  #  "Second tier" - improvements: -80.21 meV to -6.86 meV
  #     hydro 4 f 10.8
  #     hydro 3 p 5.8
  #     hydro 1 s 0.8
  #     hydro 5 g 16
  #     hydro 3 d 4.9
  #  "Third tier" - improvements: -4.29 meV to -0.53 meV
  #     hydro 3 s 16
  #     ionic 2 p auto
  #     hydro 3 d 6.6
  #     hydro 4 f 11.6
  #  "Fourth tier" - improvements: -0.75 meV to -0.25 meV
  #     hydro 2 p 4.5
  #     hydro 2 s 2.4
  #     hydro 5 g 14.4
  #     hydro 4 d 14.4
  #     hydro 4 f 16.8
  # Further basis functions - -0.21 meV and below
  #     hydro 3 p 14.8
  #     hydro 3 s 4.4
  #     hydro 3 d 19.6
  #     hydro 5 g 12.8
  ################################################################################
  #
  #  FHI-aims code project
  #  VB, Fritz-Haber Institut, 2009
  #
  #  Suggested "light" defaults for O atom (to be pasted into control.in file)
  #  Be sure to double-check any results obtained with these settings for post-processing,
  #  e.g., with the "tight" defaults and larger basis sets.
  #
  ################################################################################
    species        O
  #     global species definitions
      nucleus             8
      mass                15.9994
  #
      l_hartree           4
  #
      cut_pot             3.5  1.5  1.0
      basis_dep_cutoff    1e-4
  #
      radial_base         36 5.0
      radial_multiplier   1
       angular_grids specified
        division   0.2659   50
        division   0.4451  110
        division   0.6052  194
        division   0.7543  302
  #      division   0.8014  434
  #      division   0.8507  590
  #      division   0.8762  770
  #      division   0.9023  974
  #      division   1.2339 1202
  #      outer_grid 974
        outer_grid 302
  ################################################################################
  #
  #  Definition of "minimal" basis
  #
  ################################################################################
  #     valence basis states
      valence      2  s   2.
      valence      2  p   4.
  #     ion occupancy
      ion_occ      2  s   1.
      ion_occ      2  p   3.
  ################################################################################
  #
  #  Suggested additional basis functions. For production calculations,
  #  uncomment them one after another (the most important basis functions are
  #  listed first).
  #
  #  Constructed for dimers: 1.0 A, 1.208 A, 1.5 A, 2.0 A, 3.0 A
  #
  ################################################################################
  #  "First tier" - improvements: -699.05 meV to -159.38 meV
       hydro 2 p 1.8
       hydro 3 d 7.6
       hydro 3 s 6.4
  #  "Second tier" - improvements: -49.91 meV to -5.39 meV
  #     hydro 4 f 11.6
  #     hydro 3 p 6.2
  #     hydro 3 d 5.6
  #     hydro 5 g 17.6
  #     hydro 1 s 0.75
  #  "Third tier" - improvements: -2.83 meV to -0.50 meV
  #     ionic 2 p auto
  #     hydro 4 f 10.8
  #     hydro 4 d 4.7
  #     hydro 2 s 6.8
  #  "Fourth tier" - improvements: -0.40 meV to -0.12 meV
  #     hydro 3 p 5
  #     hydro 3 s 3.3
  #     hydro 5 g 15.6
  #     hydro 4 f 17.6
  #     hydro 4 d 14
  # Further basis functions - -0.08 meV and below
  #     hydro 3 s 2.1
  #     hydro 4 d 11.6
  #     hydro 3 p 16
  #     hydro 2 s 17.2
  
  -----------------------------------------------------------------------
  Completed first pass over input file control.in .
  -----------------------------------------------------------------------
  
  
  -----------------------------------------------------------------------
  Parsing geometry.in (first pass over file, find array dimensions only).
  The contents of geometry.in will be repeated verbatim below
  unless switched off by setting 'verbatim_writeout .false.' .
  in the first line of geometry.in .
  -----------------------------------------------------------------------
  
  atom  0.00000 0.00000 0.00000 C
  atom  1.09300 0.00000 0.00000 H
  atom  -0.47961 0.00000 -1.41207 N
  atom  -0.06147 -0.79333 -1.89953 H
  atom  -1.49422 -0.08173 -1.41266 H
  atom  -0.49584 1.26211 0.72868 C
  atom  -1.58789 1.28919 0.74431 H
  atom  -0.13407 1.27425 1.75947 H
  atom  -0.13407 2.16087 0.22380 H
  atom  -0.39425 -1.28861 0.74398 C
  atom  -0.10189 -1.56493 1.88303 O
  atom  -1.10210 -2.13717 0.06896 O
  atom  -0.38510 -2.73357 -0.20528 H
  
  -----------------------------------------------------------------------
  Completed first pass over input file geometry.in .
  -----------------------------------------------------------------------
  

  Basic array size parameters:
  | Number of species                 :        4
  | Number of atoms                   :       13
  | Max. basis fn. angular momentum   :        2
  | Max. atomic/ionic basis occupied n:        2
  | Max. number of basis fn. types    :        2
  | Max. radial fns per species/type  :        3
  | Max. logarithmic grid size        :     1301
  | Max. radial integration grid size :       36
  | Max. angular integration grid size:      302
  | Max. angular grid division number :        8
  | Radial grid for Hartree potential :     1301
  | Number of spin channels           :        1

------------------------------------------------------------
          Reading file control.in.
------------------------------------------------------------
  XC: Using PBE gradient-corrected functionals.
  Spin treatment: No spin polarisation.
  Non-relativistic treatment of kinetic energy.
  Charge =   0.000000E+00: Neutral system requested explicitly.
  Occupation type: Gaussian broadening, width =   0.100000E-01 eV.
  Using pulay charge density mixing.
  Pulay mixing - number of memorized iterations:   10
  Charge density mixing - mixing parameter:     0.2000
  Convergence accuracy of self-consistent charge density:  0.1000E-04
  Convergence accuracy of sum of eigenvalues:  0.1000E-02
  Convergence accuracy of total energy:  0.1000E-05
  Convergence accuracy of forces:  0.1000E-03
  Maximum number of s.-c. iterations  :   100
 
  Reading configuration options for species H                   .
  | Found nuclear charge :   1.0000
  | Found atomic mass :    1.00794000000000      amu
  | Found l_max for Hartree potential  :   4
  | Found cutoff potl. onset [A], width [A], scale factor :    3.50000    1.50000    1.00000
  | Threshold for basis-dependent cutoff potential is   0.100000E-03
  | Found data for basic radial integration grid :    24 points, outermost radius =    5.000 A
  | Found multiplier for basic radial grid :   1
  | Found angular grid specification: user-specified.
  | Specified grid contains     5 separate shells.
  | Check grid settings after all constraints further below.
  | Found free-atom valence shell :  1 s   1.000
  | No ionic wave fns used. Skipping ion_occ.
  | Found hydrogenic basis function :  2 s   2.100
  | Found hydrogenic basis function :  2 p   3.500
  Species H                   : Missing cutoff potential type.
  Defaulting to exp(1/x)/(1-x)^2 type cutoff potential.
  Species H : No 'logarithmic' tag. Using default grid for free atom:
  | Default logarithmic grid data [bohr] : 0.1000E-03 0.1000E+03 0.1012E+01
  Species H : On-site basis accuracy parameter (for Gram-Schmidt orthonormalisation) not specified.
  Using default value basis_acc =  0.1000000E-03.
  Species H                   : Using default innermost maximum threshold i_radial=  2 for radial functions.
  Species H                   : Default cutoff onset for free atom density etc. : 0.35000000E+01 AA.
  Species H                   : Basic radial grid will be enhanced according to radial_multiplier =   1, to contain    24 grid points.
 
  Reading configuration options for species C                   .
  | Found nuclear charge :   6.0000
  | Found atomic mass :    12.0107000000000      amu
  | Found l_max for Hartree potential  :   4
  | Found cutoff potl. onset [A], width [A], scale factor :    3.50000    1.50000    1.00000
  | Threshold for basis-dependent cutoff potential is   0.100000E-03
  | Found data for basic radial integration grid :    34 points, outermost radius =    5.000 A
  | Found multiplier for basic radial grid :   1
  | Found angular grid specification: user-specified.
  | Specified grid contains     5 separate shells.
  | Check grid settings after all constraints further below.
  | Found free-atom valence shell :  2 s   2.000
  | Found free-atom valence shell :  2 p   2.000
  | No ionic wave fns used. Skipping ion_occ.
  | No ionic wave fns used. Skipping ion_occ.
  | Found hydrogenic basis function :  2 p   1.700
  | Found hydrogenic basis function :  3 d   6.000
  | Found hydrogenic basis function :  2 s   4.900
  Species C                   : Missing cutoff potential type.
  Defaulting to exp(1/x)/(1-x)^2 type cutoff potential.
  Species C : No 'logarithmic' tag. Using default grid for free atom:
  | Default logarithmic grid data [bohr] : 0.1000E-03 0.1000E+03 0.1012E+01
  Species C : On-site basis accuracy parameter (for Gram-Schmidt orthonormalisation) not specified.
  Using default value basis_acc =  0.1000000E-03.
  Species C                   : Using default innermost maximum threshold i_radial=  2 for radial functions.
  Species C                   : Default cutoff onset for free atom density etc. : 0.35000000E+01 AA.
  Species C                   : Basic radial grid will be enhanced according to radial_multiplier =   1, to contain    34 grid points.
 
  Reading configuration options for species N                   .
  | Found nuclear charge :   7.0000
  | Found atomic mass :    14.0067000000000      amu
  | Found l_max for Hartree potential  :   4
  | Found cutoff potl. onset [A], width [A], scale factor :    3.50000    1.50000    1.00000
  | Threshold for basis-dependent cutoff potential is   0.100000E-03
  | Found data for basic radial integration grid :    35 points, outermost radius =    5.000 A
  | Found multiplier for basic radial grid :   1
  | Found angular grid specification: user-specified.
  | Specified grid contains     5 separate shells.
  | Check grid settings after all constraints further below.
  | Found free-atom valence shell :  2 s   2.000
  | Found free-atom valence shell :  2 p   3.000
  | No ionic wave fns used. Skipping ion_occ.
  | No ionic wave fns used. Skipping ion_occ.
  | Found hydrogenic basis function :  2 p   1.800
  | Found hydrogenic basis function :  3 d   6.800
  | Found hydrogenic basis function :  3 s   5.800
  Species N                   : Missing cutoff potential type.
  Defaulting to exp(1/x)/(1-x)^2 type cutoff potential.
  Species N : No 'logarithmic' tag. Using default grid for free atom:
  | Default logarithmic grid data [bohr] : 0.1000E-03 0.1000E+03 0.1012E+01
  Species N : On-site basis accuracy parameter (for Gram-Schmidt orthonormalisation) not specified.
  Using default value basis_acc =  0.1000000E-03.
  Species N                   : Using default innermost maximum threshold i_radial=  2 for radial functions.
  Species N                   : Default cutoff onset for free atom density etc. : 0.35000000E+01 AA.
  Species N                   : Basic radial grid will be enhanced according to radial_multiplier =   1, to contain    35 grid points.
 
  Reading configuration options for species O                   .
  | Found nuclear charge :   8.0000
  | Found atomic mass :    15.9994000000000      amu
  | Found l_max for Hartree potential  :   4
  | Found cutoff potl. onset [A], width [A], scale factor :    3.50000    1.50000    1.00000
  | Threshold for basis-dependent cutoff potential is   0.100000E-03
  | Found data for basic radial integration grid :    36 points, outermost radius =    5.000 A
  | Found multiplier for basic radial grid :   1
  | Found angular grid specification: user-specified.
  | Specified grid contains     5 separate shells.
  | Check grid settings after all constraints further below.
  | Found free-atom valence shell :  2 s   2.000
  | Found free-atom valence shell :  2 p   4.000
  | No ionic wave fns used. Skipping ion_occ.
  | No ionic wave fns used. Skipping ion_occ.
  | Found hydrogenic basis function :  2 p   1.800
  | Found hydrogenic basis function :  3 d   7.600
  | Found hydrogenic basis function :  3 s   6.400
  Species O                   : Missing cutoff potential type.
  Defaulting to exp(1/x)/(1-x)^2 type cutoff potential.
  Species O : No 'logarithmic' tag. Using default grid for free atom:
  | Default logarithmic grid data [bohr] : 0.1000E-03 0.1000E+03 0.1012E+01
  Species O : On-site basis accuracy parameter (for Gram-Schmidt orthonormalisation) not specified.
  Using default value basis_acc =  0.1000000E-03.
  Species O                   : Using default innermost maximum threshold i_radial=  2 for radial functions.
  Species O                   : Default cutoff onset for free atom density etc. : 0.35000000E+01 AA.
  Species O                   : Basic radial grid will be enhanced according to radial_multiplier =   1, to contain    36 grid points.
 
  Finished reading input file 'control.in'. Consistency checks are next.
 
  MPI_IN_PLACE appears to work with this MPI implementation.
  | Keeping use_mpi_in_place .true. (see manual).
  Target number of points in a grid batch is not set. Defaulting to  100
  Method for grid partitioning is not set. Defaulting to parallel hash+maxmin partitioning.
  Batch size limit is not set. Defaulting to    200
  By default, will store active basis functions for each batch.
  If in need of memory, prune_basis_once .false. can be used to disable this option.
  communication_type for Hartree potential was not specified.
  Defaulting to calc_hartree .
  Pulay mixer: Number of initial linear mixing iterations not set.
  Defaulting to    0 iterations.
  Work space size for distributed Hartree potential not set.
  Defaulting to   0.200000E+03 MB.
  Algorithm-dependent basis array size parameters:
  | n_max_pulay                         :       10
  Presetting      1001 iterations before the initial mixing cycle
  is restarted anyway using the sc_init_iter criterion / keyword.
  Presetting a factor      1.000 between actual scf density residual
  and density convergence criterion sc_accuracy_rho below which sc_init_iter
  takes no effect.
  Geometry relaxation not requested: no relaxation will be performed.
  Handling of forces: Unphysical translation and rotation will be removed from forces.
  No accuracy limit for integral partition fn. given. Defaulting to  0.1000E-14.
  No threshold value for u(r) in integrations given. Defaulting to  0.1000E-05.
  No accuracy for occupation numbers given. Defaulting to  0.1000E-12.
  No threshold value for occupation numbers given. Defaulting to  0.0000E+00.
  No accuracy for fermi level given. Defaulting to  0.1000E-19.
  Maximum # of iterations to find E_F not set. Defaulting to  200.
  Preferred method for the eigenvalue solver ('KS_method') not specified in 'control.in'.
  Defaulting to serial version, 'lapack_fast'.
  Will not use alltoall communication since running on < 1024 CPUs.
  Threshold for basis singularities not set.
  Default threshold for basis singularities:  0.1000E-04
  partition_type (choice of integration weights) for integrals was not specified.
  | Using a version of the partition function of Stratmann and coworkers ('stratmann_smoother').
  | At each grid point, the set of atoms used to build the partition table is smoothly restricted to
  | only those atoms whose free-atom density would be non-zero at that grid point.
  Partitioning for Hartree potential was not defined. Using partition_type for integrals.
  | Adjusted default value of keyword multip_moments_threshold to:       0.10000000E-11
  | This value may affect high angular momentum components of the Hartree potential in periodic systems.
  No q(lm)/r^(l+1) cutoff set for long-range Hartree potential.
  | Using default value of  0.100000E-09 .
  | Verify using the multipole_threshold keyword.
  Defaulting to new monopole extrapolation.
  Density update method: automatic selection selected.
------------------------------------------------------------


------------------------------------------------------------
          Reading geometry description geometry.in.
------------------------------------------------------------
  Input structure read successfully.
  The structure contains       13 atoms,  and a total of         48.000 electrons.

  Input geometry:
  | No unit cell requested.
  | Atomic structure:
  |       Atom                x [A]            y [A]            z [A]
  |    1: Species C             0.00000000        0.00000000        0.00000000
  |    2: Species H             1.09300000        0.00000000        0.00000000
  |    3: Species N            -0.47961000        0.00000000       -1.41207000
  |    4: Species H            -0.06147000       -0.79333000       -1.89953000
  |    5: Species H            -1.49422000       -0.08173000       -1.41266000
  |    6: Species C            -0.49584000        1.26211000        0.72868000
  |    7: Species H            -1.58789000        1.28919000        0.74431000
  |    8: Species H            -0.13407000        1.27425000        1.75947000
  |    9: Species H            -0.13407000        2.16087000        0.22380000
  |   10: Species C            -0.39425000       -1.28861000        0.74398000
  |   11: Species O            -0.10189000       -1.56493000        1.88303000
  |   12: Species O            -1.10210000       -2.13717000        0.06896000
  |   13: Species H            -0.38510000       -2.73357000       -0.20528000
  |

  | The smallest distance between any two atoms is         0.97210572 AA.
  |
  | The first atom of this pair is atom number                     12 .
  | The second atom of this pair is atom number                    13 .

  Number of empty states per atom not set in control.in - providing a guess from actual geometry.
  | Total number of empty states used during s.c.f. cycle:       29
  If you use a very high smearing, use empty_states (per atom!) in control.in to increase this value.

  Structure-dependent array size parameters: 
  | Maximum number of distinct radial functions  :       21
  | Maximum number of basis functions            :      119
  | Number of Kohn-Sham states (occupied + empty):       53
------------------------------------------------------------

------------------------------------------------------------
          Preparing all fixed parts of the calculation.
------------------------------------------------------------
  Determining machine precision:
    2.225073858507201E-308
  Setting up grids for atomic and cluster calculations.

  Creating wave function, potential, and density for free atoms.

  Species: H

  List of occupied orbitals and eigenvalues:
    n    l              occ      energy [Ha]    energy [eV]
    1    0           1.0000        -0.237589        -6.4651


  Species: C

  List of occupied orbitals and eigenvalues:
    n    l              occ      energy [Ha]    energy [eV]
    1    0           2.0000       -10.038835      -273.1706
    2    0           2.0000        -0.502696       -13.6791
    2    1           2.0000        -0.191971        -5.2238


  Species: N

  List of occupied orbitals and eigenvalues:
    n    l              occ      energy [Ha]    energy [eV]
    1    0           2.0000       -14.128000      -384.4424
    2    0           2.0000        -0.681077       -18.5330
    2    1           3.0000        -0.259788        -7.0692


  Species: O

  List of occupied orbitals and eigenvalues:
    n    l              occ      energy [Ha]    energy [eV]
    1    0           2.0000       -18.898188      -514.2459
    2    0           2.0000        -0.878505       -23.9053
    2    1           4.0000        -0.331779        -9.0282

  Creating fixed part of basis set: Ionic, confined, hydrogenic.
 
  H                    hydrogenic:
 
  List of hydrogenic basis orbitals: 
    n    l      effective z      eigenvalue [eV]  inner max. [A]     outer max. [A]     outer radius [A]   
    2    0         2.100000       -14.9728           0.193243           1.317208           4.583499
    2    1         3.500000       -41.6669           0.602369           0.602369           3.723403
 
 
  C                    hydrogenic:
 
  List of hydrogenic basis orbitals: 
    n    l      effective z      eigenvalue [eV]  inner max. [A]     outer max. [A]     outer radius [A]   
    2    1         1.700000        -9.7616           1.230570           1.230570           4.607917
    3    2         6.000000       -54.4224           0.792453           0.792453           3.883070
    2    0         4.900000       -81.6679           0.082559           0.562749           3.078220
 
 
  N                    hydrogenic:
 
  List of hydrogenic basis orbitals: 
    n    l      effective z      eigenvalue [eV]  inner max. [A]     outer max. [A]     outer radius [A]   
    2    1         1.800000       -10.9749           1.177451           1.177451           4.573712
    3    2         6.800000       -69.9026           0.704619           0.704619           3.538137
    3    0         5.800000       -50.8545           0.067388           1.191934           4.250239
 
 
  O                    hydrogenic:
 
  List of hydrogenic basis orbitals: 
    n    l      effective z      eigenvalue [eV]  inner max. [A]     outer max. [A]     outer radius [A]   
    2    1         1.800000       -10.9749           1.164242           1.164242           4.578029
    3    2         7.600000       -87.3180           0.624125           0.624125           3.251020
    3    0         6.400000       -61.9207           0.061167           1.081902           4.001998
 

  Adding cutoff potential to free-atom effective potential.
  Creating atomic-like basis functions for current effective potential.

  Species H                   :

  List of atomic basis orbitals and eigenvalues:
    n    l      energy [Ha]    energy [eV]    outer radius [A]
    1    0        -0.237589        -6.4651       4.527807


  Species C                   :

  List of atomic basis orbitals and eigenvalues:
    n    l      energy [Ha]    energy [eV]    outer radius [A]
    1    0       -10.038835      -273.1706       1.934409
    2    0        -0.502696       -13.6791       4.496620
    2    1        -0.191971        -5.2238       4.551928


  Species N                   :

  List of atomic basis orbitals and eigenvalues:
    n    l      energy [Ha]    energy [eV]    outer radius [A]
    1    0       -14.128000      -384.4424       1.637919
    2    0        -0.681077       -18.5330       4.463241
    2    1        -0.259788        -7.0692       4.518138


  Species O                   :

  List of atomic basis orbitals and eigenvalues:
    n    l      energy [Ha]    energy [eV]    outer radius [A]
    1    0       -18.898188      -514.2459       1.415765
    2    0        -0.878505       -23.9053       4.413171
    2    1        -0.331779        -9.0282       4.522403

  Assembling full basis from fixed parts.
  | Species H :   atomic orbital   1 s accepted.
  | Species H :    hydro orbital   2 s accepted.
  | Species H :    hydro orbital   2 p accepted.
  | Species C :   atomic orbital   1 s accepted.
  | Species C :    hydro orbital   2 s accepted.
  | Species C :   atomic orbital   2 s accepted.
  | Species C :   atomic orbital   2 p accepted.
  | Species C :    hydro orbital   2 p accepted.
  | Species C :    hydro orbital   3 d accepted.
  | Species N :   atomic orbital   1 s accepted.
  | Species N :    hydro orbital   3 s accepted.
  | Species N :   atomic orbital   2 s accepted.
  | Species N :   atomic orbital   2 p accepted.
  | Species N :    hydro orbital   2 p accepted.
  | Species N :    hydro orbital   3 d accepted.
  | Species O :   atomic orbital   1 s accepted.
  | Species O :    hydro orbital   3 s accepted.
  | Species O :   atomic orbital   2 s accepted.
  | Species O :   atomic orbital   2 p accepted.
  | Species O :    hydro orbital   2 p accepted.
  | Species O :    hydro orbital   3 d accepted.
 
  Basis size parameters after reduction:
  | Total number of radial functions:       21
  | Total number of basis functions :      119
 
  Per-task memory consumption for arrays in subroutine allocate_ext:
  |           5.250512MB.
  Testing on-site integration grid accuracy.
  |  Species  Function  <phi|h_atom|phi> (log., in eV)  <phi|h_atom|phi> (rad., in eV)
           1        1                 -6.4663192853                 -6.4651273558
           1        2                 13.7111246313                 13.7170609718
           1        3                 25.2673269279                 25.2674696378
           2        4               -273.1705927641               -273.1705631568
           2        5                -10.7109323383                -10.7107120029
           2        6                 17.4381822266                 17.4352413244
           2        7                 -5.2255326521                 -5.2270484734
           2        8                  8.6835629259                  8.6603288385
           2        9                 27.4952418996                 27.4953360207
           3       10               -384.4424306495               -384.4423701208
           3       11                 12.5842251816                 12.5842222903
           3       12                -15.7264628251                -15.7264433455
           3       13                 -7.0696854293                 -7.0701769954
           3       14                  8.8090390882                  8.7901077751
           3       15                 35.9586762123                 35.9588528632
           4       16               -514.2458688638               -514.2457643834
           4       17                 15.1795651126                 15.1795290741
           4       18                -21.5359799773                -21.5360846186
           4       19                 -9.0283069236                 -9.0284644067
           4       20                  8.3027758564                  8.2834874195
           4       21                 45.8339351984                 45.8338762259

  Preparing densities etc. for the partition functions (integrals / Hartree potential).

  Preparations completed.
  max(cpu_time)          :      0.144 s.
  Wall clock time (cpu1) :      0.145 s.
------------------------------------------------------------

------------------------------------------------------------
          Begin self-consistency loop: Initialization.

          Date     :  20200815, Time     :  004330.818
------------------------------------------------------------

  Initializing index lists of integration centers etc. from given atomic structure:
  | Number of centers in hartree potential         :        13
  | Number of centers in hartree multipole         :        13
  | Number of centers in electron density summation:        13
  | Number of centers in basis integrals           :        13
  | Number of centers in integrals                 :        13
  | Number of centers in hamiltonian               :        13
  Partitioning the integration grid into batches with parallel hashing+maxmin method.
  | Number of batches:      958
  | Maximal batch size:     139
  | Minimal batch size:      66
  | Average batch size:      72.699
  | Standard deviation of batch sizes:      17.245

  Integration load balanced across     1 MPI tasks.
  Work distribution over tasks is as follows:
  Task     0 has      69646 integration points.
  Initializing partition tables, free-atom densities, potentials, etc. across the integration grid (initialize_grid_storage).
  | initialize_grid_storage: Actual outermost partition radius vs. multipole_radius_free
  | (-- VB: in principle, multipole_radius_free should be larger, hence this output)
  | Species        1: Confinement radius =              4.999999999999999 AA, multipole_radius_free =              5.054417573612229 AA.
  | Species        1: outer_partition_radius set to              5.054417573612229 AA .
  | Species        2: Confinement radius =              4.999999999999999 AA, multipole_radius_free =              5.019602836301480 AA.
  | Species        2: outer_partition_radius set to              5.019602836301480 AA .
  | Species        3: Confinement radius =              4.999999999999999 AA, multipole_radius_free =              5.043624274424571 AA.
  | Species        3: outer_partition_radius set to              5.043624274424571 AA .
  | Species        4: Confinement radius =              4.999999999999999 AA, multipole_radius_free =              5.048384829883283 AA.
  | Species        4: outer_partition_radius set to              5.048384829883283 AA .
  | Original list of interatomic distances with          13 x         13 entries is created.
  | Net number of integration points:    69646
  | of which are non-zero points    :    59472
  Renormalizing the initial density to the exact electron count on the 3D integration grid.
  | Initial density: Formal number of electrons (from input files) :      48.0000000000
  | Integrated number of electrons on 3D grid     :      47.9999086201
  | Charge integration error                      :      -0.0000913799
  | Normalization factor for density and gradient :       1.0000019038
  Obtaining max. number of non-zero basis functions in each batch (get_n_compute_maxes).
  | Maximal number of non-zero basis functions:      118 in task     0
  Selecting the method for density update.
  Loop over occupied states selected for charge density update.
  Allocating        0.050 MB for KS_eigenvector
  Integrating Hamiltonian matrix: batch-based integration.
  Time summed over all CPUs for integration: real work        0.489 s, elapsed        0.489 s
  Integrating overlap matrix.
  Time summed over all CPUs for integration: real work        0.210 s, elapsed        0.210 s

  Updating Kohn-Sham eigenvalues and eigenvectors using ELSI and the ELPA eigensolver.
  Overlap matrix is nonsingular
  | Lowest eigenvalue of overlap  :  0.53E-02
  | Highest eigenvalue of overlap :  0.62E+01
  Finished singularity check of overlap matrix
  | Time :     0.002 s
  Finished Cholesky decomposition
  | Time :     0.000 s
  Finished transformation to standard eigenproblem
  | Time :     0.000 s
  Starting LAPACK eigensolver
  Finished solving standard eigenproblem
  | Time :     0.002 s
  Finished back-transformation of eigenvectors
  | Time :     0.000 s

  Obtaining occupation numbers and chemical potential using ELSI.
  | Chemical potential (Fermi level):    -8.76538132eV
  Writing Kohn-Sham eigenvalues.

  State    Occupation    Eigenvalue [Ha]    Eigenvalue [eV]
      1       2.00000         -19.007799         -517.22852
      2       2.00000         -18.977374         -516.40063
      3       2.00000         -14.245818         -387.64843
      4       2.00000         -10.166657         -276.64880
      5       2.00000         -10.141301         -275.95885
      6       2.00000         -10.132061         -275.70741
      7       2.00000          -1.184147          -32.22229
      8       2.00000          -1.096735          -29.84368
      9       2.00000          -0.990888          -26.96345
     10       2.00000          -0.860978          -23.42840
     11       2.00000          -0.753670          -20.50840
     12       2.00000          -0.683747          -18.60570
     13       2.00000          -0.621753          -16.91877
     14       2.00000          -0.616472          -16.77505
     15       2.00000          -0.584752          -15.91191
     16       2.00000          -0.571313          -15.54622
     17       2.00000          -0.555169          -15.10690
     18       2.00000          -0.529896          -14.41919
     19       2.00000          -0.513123          -13.96278
     20       2.00000          -0.493180          -13.42010
     21       2.00000          -0.457377          -12.44586
     22       2.00000          -0.432029          -11.75610
     23       2.00000          -0.419130          -11.40510
     24       2.00000          -0.376992          -10.25847
     25       0.00000          -0.163336           -4.44461
     26       0.00000          -0.067732           -1.84308
     27       0.00000          -0.027440           -0.74667
     28       0.00000          -0.016652           -0.45312
     29       0.00000          -0.004581           -0.12465
     30       0.00000           0.013734            0.37371
     31       0.00000           0.016843            0.45832
     32       0.00000           0.032780            0.89198
     33       0.00000           0.045485            1.23770
     34       0.00000           0.061402            1.67082
     35       0.00000           0.083004            2.25866
     36       0.00000           0.133879            3.64302
     37       0.00000           0.161907            4.40570
     38       0.00000           0.197804            5.38252
     39       0.00000           0.218620            5.94895
     40       0.00000           0.226174            6.15451
     41       0.00000           0.252316            6.86587
     42       0.00000           0.269444            7.33194
     43       0.00000           0.288364            7.84678
     44       0.00000           0.292367            7.95570
     45       0.00000           0.342710            9.32561
     46       0.00000           0.349622            9.51371
     47       0.00000           0.371620           10.11230
     48       0.00000           0.380162           10.34475
     49       0.00000           0.430788           11.72233
     50       0.00000           0.481827           13.11118
     51       0.00000           0.484664           13.18839
     52       0.00000           0.537762           14.63326
     53       0.00000           0.596846           16.24100

  Highest occupied state (VBM) at    -10.25846913 eV
  | Occupation number:      2.00000000

  Lowest unoccupied state (CBM) at    -4.44461193 eV
  | Occupation number:      0.00000000

  Overall HOMO-LUMO gap:      5.81385721 eV.
  Calculating total energy contributions from superposition of free atom densities.

  Total energy components:
  | Sum of eigenvalues            :        -188.82471825 Ha       -5138.18201142 eV
  | XC energy correction          :         -41.78503623 Ha       -1137.02868716 eV
  | XC potential correction       :          53.71503714 Ha        1461.66052905 eV
  | Free-atom electrostatic energy:        -146.86369043 Ha       -3996.36434943 eV
  | Hartree energy correction     :           0.00000000 Ha           0.00000000 eV
  | vdW energy correction         :           0.00000000 Ha           0.00000000 eV
  | Entropy correction            :           0.00000000 Ha           0.00000000 eV
  | ---------------------------
  | Total energy                  :        -323.75840777 Ha       -8809.91451895 eV
  | Total energy, T -> 0          :        -323.75840777 Ha       -8809.91451895 eV  <-- do not rely on this value for anything but (periodic) metals
  | Electronic free energy        :        -323.75840777 Ha       -8809.91451895 eV

  Derived energy quantities:
  | Kinetic energy                :         320.49010126 Ha        8720.97937393 eV
  | Electrostatic energy          :        -602.46347281 Ha      -16393.86520572 eV
  | Energy correction for multipole
  | error in Hartree potential    :           0.00000000 Ha           0.00000000 eV
  | Sum of eigenvalues per atom                           :        -395.24477011 eV
  | Total energy (T->0) per atom                          :        -677.68573223 eV  <-- do not rely on this value for anything but (periodic) metals
  | Electronic free energy per atom                       :        -677.68573223 eV
  Initialize hartree_potential_storage
  Max. number of atoms included in rho_multipole:           13

  End scf initialization - timings             :  max(cpu_time)    wall_clock(cpu1)
  | Time for scf. initialization               :        1.137 s           1.139 s
  | Boundary condition initialization          :        0.000 s           0.000 s
  | Integration                                :        0.700 s           0.700 s
  | Solution of K.-S. eqns.                    :        0.004 s           0.004 s
  | Grid partitioning                          :        0.110 s           0.111 s
  | Preloading free-atom quantities on grid    :        0.002 s           0.002 s
  | Free-atom superposition energy             :        0.085 s           0.085 s
  | Total energy evaluation                    :        0.000 s           0.001 s

  Partial memory accounting:
  | Current value for overall tracked memory usage on task 0  :           0.165 MB
  | Peak value for overall tracked memory usage on task 0     :           0.673 MB after allocating wave
  | Largest tracked array allocation on task 0 so far         :           0.131 MB  when allocating H_times_psi
  Note:  These values currently only include a subset of arrays which are explicitly tracked.
  The "true" memory usage will be greater.
------------------------------------------------------------

------------------------------------------------------------
          Begin self-consistency iteration #    1

  Date     :  20200815, Time     :  004331.957
------------------------------------------------------------
  Evaluating new KS density.
  Integration grid: deviation in total charge (<rho> - N_e) =  -3.552714E-14
  Pulay mixing of updated and previous charge densities.

  Evaluating partitioned Hartree potential by multipole expansion.
  | Analytical far-field extrapolation by fixed multipoles:
  | Hartree multipole sum: apparent total charge =  -0.200355E-03
  Summing up the Hartree potential.
  Time summed over all CPUs for potential: real work        0.281 s, elapsed        0.281 s
  | RMS charge density error from multipole expansion :   0.594292E-02

  Integrating Hamiltonian matrix: batch-based integration.
  Time summed over all CPUs for integration: real work        0.490 s, elapsed        0.490 s

  Updating Kohn-Sham eigenvalues and eigenvectors using ELSI and the ELPA eigensolver.
  Finished Cholesky decomposition
  | Time :     0.000 s
  Finished transformation to standard eigenproblem
  | Time :     0.000 s
  Starting LAPACK eigensolver
  Finished solving standard eigenproblem
  | Time :     0.002 s
  Finished back-transformation of eigenvectors
  | Time :     0.000 s

  Obtaining occupation numbers and chemical potential using ELSI.
  | Chemical potential (Fermi level):    -7.69128235eV
  Writing Kohn-Sham eigenvalues.

  State    Occupation    Eigenvalue [Ha]    Eigenvalue [eV]
      1       2.00000         -18.898160         -514.24509
      2       2.00000         -18.840163         -512.66692
      3       2.00000         -14.096571         -383.58720
      4       2.00000         -10.118029         -275.32557
      5       2.00000         -10.062754         -273.82148
      6       2.00000         -10.029750         -272.92339
      7       2.00000          -1.135097          -30.88755
      8       2.00000          -1.034889          -28.16076
      9       2.00000          -0.921526          -25.07600
     10       2.00000          -0.794154          -21.61004
     11       2.00000          -0.701550          -19.09014
     12       2.00000          -0.640078          -17.41741
     13       2.00000          -0.564417          -15.35856
     14       2.00000          -0.559047          -15.21244
     15       2.00000          -0.529565          -14.41021
     16       2.00000          -0.511208          -13.91068
     17       2.00000          -0.493336          -13.42436
     18       2.00000          -0.467765          -12.72852
     19       2.00000          -0.445711          -12.12842
     20       2.00000          -0.438222          -11.92463
     21       2.00000          -0.396571          -10.79124
     22       2.00000          -0.372641          -10.14007
     23       2.00000          -0.350613           -9.54067
     24       2.00000          -0.304130           -8.27581
     25       0.00000          -0.129489           -3.52357
     26       0.00000          -0.049242           -1.33996
     27       0.00000           0.005741            0.15621
     28       0.00000           0.014752            0.40143
     29       0.00000           0.024960            0.67919
     30       0.00000           0.053542            1.45695
     31       0.00000           0.057526            1.56536
     32       0.00000           0.070310            1.91323
     33       0.00000           0.084741            2.30592
     34       0.00000           0.102750            2.79598
     35       0.00000           0.123433            3.35878
     36       0.00000           0.162777            4.42938
     37       0.00000           0.185449            5.04633
     38       0.00000           0.225306            6.13090
     39       0.00000           0.253163            6.88892
     40       0.00000           0.259621            7.06464
     41       0.00000           0.289537            7.87871
     42       0.00000           0.307452            8.36619
     43       0.00000           0.323276            8.79678
     44       0.00000           0.328333            8.93440
     45       0.00000           0.373281           10.15751
     46       0.00000           0.384220           10.45517
     47       0.00000           0.415158           11.29703
     48       0.00000           0.420743           11.44900
     49       0.00000           0.466077           12.68261
     50       0.00000           0.518401           14.10642
     51       0.00000           0.525683           14.30456
     52       0.00000           0.568911           15.48086
     53       0.00000           0.632867           17.22120

  Highest occupied state (VBM) at     -8.27581170 eV
  | Occupation number:      2.00000000

  Lowest unoccupied state (CBM) at    -3.52357114 eV
  | Occupation number:      0.00000000

  Overall HOMO-LUMO gap:      4.75224057 eV.

  Total energy components:
  | Sum of eigenvalues            :        -185.41189255 Ha       -5045.31429905 eV
  | XC energy correction          :         -42.11637648 Ha       -1146.04491413 eV
  | XC potential correction       :          54.14602374 Ha        1473.38827117 eV
  | Free-atom electrostatic energy:        -146.86369043 Ha       -3996.36434943 eV
  | Hartree energy correction     :          -3.32638759 Ha         -90.51561161 eV
  | vdW energy correction         :           0.00000000 Ha           0.00000000 eV
  | Entropy correction            :           0.00000000 Ha           0.00000000 eV
  | ---------------------------
  | Total energy                  :        -323.57232331 Ha       -8804.85090304 eV
  | Total energy, T -> 0          :        -323.57232331 Ha       -8804.85090304 eV  <-- do not rely on this value for anything but (periodic) metals
  | Electronic free energy        :        -323.57232331 Ha       -8804.85090304 eV

  Derived energy quantities:
  | Kinetic energy                :         322.30008135 Ha        8770.23143793 eV
  | Electrostatic energy          :        -603.75602817 Ha      -16429.03742684 eV
  | Energy correction for multipole
  | error in Hartree potential    :           0.01196432 Ha           0.32556560 eV
  | Sum of eigenvalues per atom                           :        -388.10109993 eV
  | Total energy (T->0) per atom                          :        -677.29622331 eV  <-- do not rely on this value for anything but (periodic) metals
  | Electronic free energy per atom                       :        -677.29622331 eV

  Self-consistency convergence accuracy:
  | Change of charge density      :  0.5895E+00
  | Change of sum of eigenvalues  :  0.9287E+02 eV
  | Change of total energy        :  0.5064E+01 eV

  End self-consistency iteration #     1       :  max(cpu_time)    wall_clock(cpu1)
  | Time for this iteration                    :        1.178 s           1.178 s
  | Charge density update                      :        0.389 s           0.389 s
  | Density mixing                             :        0.005 s           0.006 s
  | Hartree multipole update                   :        0.009 s           0.009 s
  | Hartree multipole summation                :        0.282 s           0.282 s
  | Integration                                :        0.490 s           0.490 s
  | Solution of K.-S. eqns.                    :        0.002 s           0.002 s
  | Total energy evaluation                    :        0.000 s           0.000 s

  Partial memory accounting:
  | Current value for overall tracked memory usage on task 0  :           0.165 MB
  | Peak value for overall tracked memory usage on task 0     :           0.690 MB after allocating gradient_basis_wave
  | Largest tracked array allocation on task 0 so far         :           0.394 MB  when allocating gradient_basis_wave
  Note:  These values currently only include a subset of arrays which are explicitly tracked.
  The "true" memory usage will be greater.
------------------------------------------------------------

------------------------------------------------------------
          Begin self-consistency iteration #    2

  Date     :  20200815, Time     :  004333.138
------------------------------------------------------------
  Evaluating new KS density.
  Integration grid: deviation in total charge (<rho> - N_e) =  -2.131628E-14
  Pulay mixing of updated and previous charge densities.

  Evaluating partitioned Hartree potential by multipole expansion.
  | Analytical far-field extrapolation by fixed multipoles:
  | Hartree multipole sum: apparent total charge =  -0.338280E-03
  Summing up the Hartree potential.
  Time summed over all CPUs for potential: real work        0.281 s, elapsed        0.281 s
  | RMS charge density error from multipole expansion :   0.140176E-01

  Integrating Hamiltonian matrix: batch-based integration.
  Time summed over all CPUs for integration: real work        0.490 s, elapsed        0.490 s

  Updating Kohn-Sham eigenvalues and eigenvectors using ELSI and the ELPA eigensolver.
  Finished Cholesky decomposition
  | Time :     0.000 s
  Finished transformation to standard eigenproblem
  | Time :     0.000 s
  Starting LAPACK eigensolver
  Finished solving standard eigenproblem
  | Time :     0.002 s
  Finished back-transformation of eigenvectors
  | Time :     0.000 s

  Obtaining occupation numbers and chemical potential using ELSI.
  | Chemical potential (Fermi level):    -4.32695808eV
  Highest occupied state (VBM) at     -6.30690086 eV
  | Occupation number:      2.00000000

  Lowest unoccupied state (CBM) at    -2.34250000 eV
  | Occupation number:      0.00000000

  Overall HOMO-LUMO gap:      3.96440086 eV.

  Checking to see if s.c.f. parameters should be adjusted.

  Total energy components:
  | Sum of eigenvalues            :        -181.84180942 Ha       -4948.16739441 eV
  | XC energy correction          :         -42.47585655 Ha       -1155.82686465 eV
  | XC potential correction       :          54.61209286 Ha        1486.07065705 eV
  | Free-atom electrostatic energy:        -146.86369043 Ha       -3996.36434943 eV
  | Hartree energy correction     :          -6.92299926 Ha        -188.38439488 eV
  | vdW energy correction         :           0.00000000 Ha           0.00000000 eV
  | Entropy correction            :           0.00000000 Ha           0.00000000 eV
  | ---------------------------
  | Total energy                  :        -323.49226282 Ha       -8802.67234631 eV
  | Total energy, T -> 0          :        -323.49226282 Ha       -8802.67234631 eV  <-- do not rely on this value for anything but (periodic) metals
  | Electronic free energy        :        -323.49226282 Ha       -8802.67234631 eV

  Derived energy quantities:
  | Kinetic energy                :         323.61971125 Ha        8806.14039457 eV
  | Electrostatic energy          :        -604.63611751 Ha      -16452.98587623 eV
  | Energy correction for multipole
  | error in Hartree potential    :           0.02625255 Ha           0.71436821 eV
  | Sum of eigenvalues per atom                           :        -380.62826111 eV
  | Total energy (T->0) per atom                          :        -677.12864202 eV  <-- do not rely on this value for anything but (periodic) metals
  | Electronic free energy per atom                       :        -677.12864202 eV

  Self-consistency convergence accuracy:
  | Change of charge density      :  0.3690E+00
  | Change of sum of eigenvalues  :  0.9715E+02 eV
  | Change of total energy        :  0.2179E+01 eV

  End self-consistency iteration #     2       :  max(cpu_time)    wall_clock(cpu1)
  | Time for this iteration                    :        1.171 s           1.172 s
  | Charge density update                      :        0.382 s           0.382 s
  | Density mixing                             :        0.007 s           0.006 s
  | Hartree multipole update                   :        0.009 s           0.009 s
  | Hartree multipole summation                :        0.282 s           0.282 s
  | Integration                                :        0.490 s           0.490 s
  | Solution of K.-S. eqns.                    :        0.002 s           0.002 s
  | Total energy evaluation                    :        0.000 s           0.001 s

  Partial memory accounting:
  | Current value for overall tracked memory usage on task 0  :           0.166 MB
  | Peak value for overall tracked memory usage on task 0     :           0.690 MB after allocating gradient_basis_wave
  | Largest tracked array allocation on task 0 so far         :           0.394 MB  when allocating gradient_basis_wave
  Note:  These values currently only include a subset of arrays which are explicitly tracked.
  The "true" memory usage will be greater.
------------------------------------------------------------

------------------------------------------------------------
          Begin self-consistency iteration #    3

  Date     :  20200815, Time     :  004334.313
------------------------------------------------------------
  Evaluating new KS density.
  Integration grid: deviation in total charge (<rho> - N_e) =   7.105427E-15
  Pulay mixing of updated and previous charge densities.

  Evaluating partitioned Hartree potential by multipole expansion.
  | Analytical far-field extrapolation by fixed multipoles:
  | Hartree multipole sum: apparent total charge =  -0.436334E-03
  Summing up the Hartree potential.
  Time summed over all CPUs for potential: real work        0.282 s, elapsed        0.282 s
  | RMS charge density error from multipole expansion :   0.219915E-01

  Integrating Hamiltonian matrix: batch-based integration.
  Time summed over all CPUs for integration: real work        0.496 s, elapsed        0.496 s

  Updating Kohn-Sham eigenvalues and eigenvectors using ELSI and the ELPA eigensolver.
  Finished Cholesky decomposition
  | Time :     0.000 s
  Finished transformation to standard eigenproblem
  | Time :     0.000 s
  Starting LAPACK eigensolver
  Finished solving standard eigenproblem
  | Time :     0.002 s
  Finished back-transformation of eigenvectors
  | Time :     0.000 s

  Obtaining occupation numbers and chemical potential using ELSI.
  | Chemical potential (Fermi level):    -3.59605136eV
  Highest occupied state (VBM) at     -5.61282440 eV
  | Occupation number:      2.00000000

  Lowest unoccupied state (CBM) at    -1.65342542 eV
  | Occupation number:      0.00000000

  Overall HOMO-LUMO gap:      3.95939898 eV.

  Total energy components:
  | Sum of eigenvalues            :        -180.48779292 Ha       -4911.32273083 eV
  | XC energy correction          :         -42.63106504 Ha       -1160.05030251 eV
  | XC potential correction       :          54.81028756 Ha        1491.46380940 eV
  | Free-atom electrostatic energy:        -146.86369043 Ha       -3996.36434943 eV
  | Hartree energy correction     :          -8.30652138 Ha        -226.03194708 eV
  | vdW energy correction         :           0.00000000 Ha           0.00000000 eV
  | Entropy correction            :           0.00000000 Ha           0.00000000 eV
  | ---------------------------
  | Total energy                  :        -323.47878222 Ha       -8802.30552045 eV
  | Total energy, T -> 0          :        -323.47878222 Ha       -8802.30552045 eV  <-- do not rely on this value for anything but (periodic) metals
  | Electronic free energy        :        -323.47878222 Ha       -8802.30552045 eV

  Derived energy quantities:
  | Kinetic energy                :         323.23519171 Ha        8795.67708568 eV
  | Electrostatic energy          :        -604.08290889 Ha      -16437.93230361 eV
  | Energy correction for multipole
  | error in Hartree potential    :           0.03721424 Ha           1.01265092 eV
  | Sum of eigenvalues per atom                           :        -377.79405622 eV
  | Total energy (T->0) per atom                          :        -677.10042465 eV  <-- do not rely on this value for anything but (periodic) metals
  | Electronic free energy per atom                       :        -677.10042465 eV

  Self-consistency convergence accuracy:
  | Change of charge density      :  0.2081E+00
  | Change of sum of eigenvalues  :  0.3684E+02 eV
  | Change of total energy        :  0.3668E+00 eV

  End self-consistency iteration #     3       :  max(cpu_time)    wall_clock(cpu1)
  | Time for this iteration                    :        1.180 s           1.183 s
  | Charge density update                      :        0.383 s           0.385 s
  | Density mixing                             :        0.008 s           0.008 s
  | Hartree multipole update                   :        0.009 s           0.009 s
  | Hartree multipole summation                :        0.282 s           0.282 s
  | Integration                                :        0.497 s           0.497 s
  | Solution of K.-S. eqns.                    :        0.002 s           0.002 s
  | Total energy evaluation                    :        0.000 s           0.000 s

  Partial memory accounting:
  | Current value for overall tracked memory usage on task 0  :           0.166 MB
  | Peak value for overall tracked memory usage on task 0     :           0.691 MB after allocating gradient_basis_wave
  | Largest tracked array allocation on task 0 so far         :           0.394 MB  when allocating gradient_basis_wave
  Note:  These values currently only include a subset of arrays which are explicitly tracked.
  The "true" memory usage will be greater.
------------------------------------------------------------

------------------------------------------------------------
          Begin self-consistency iteration #    4

  Date     :  20200815, Time     :  004335.497
------------------------------------------------------------
  Evaluating new KS density.
  Integration grid: deviation in total charge (<rho> - N_e) =   2.842171E-14
  Pulay mixing of updated and previous charge densities.

  Evaluating partitioned Hartree potential by multipole expansion.
  | Analytical far-field extrapolation by fixed multipoles:
  | Hartree multipole sum: apparent total charge =  -0.469534E-03
  Summing up the Hartree potential.
  Time summed over all CPUs for potential: real work        0.282 s, elapsed        0.282 s
  | RMS charge density error from multipole expansion :   0.254687E-01

  Integrating Hamiltonian matrix: batch-based integration.
  Time summed over all CPUs for integration: real work        0.497 s, elapsed        0.497 s

  Updating Kohn-Sham eigenvalues and eigenvectors using ELSI and the ELPA eigensolver.
  Finished Cholesky decomposition
  | Time :     0.000 s
  Finished transformation to standard eigenproblem
  | Time :     0.000 s
  Starting LAPACK eigensolver
  Finished solving standard eigenproblem
  | Time :     0.002 s
  Finished back-transformation of eigenvectors
  | Time :     0.000 s

  Obtaining occupation numbers and chemical potential using ELSI.
  | Chemical potential (Fermi level):    -3.50703999eV
  Highest occupied state (VBM) at     -5.41920535 eV
  | Occupation number:      2.00000000

  Lowest unoccupied state (CBM) at    -1.55838866 eV
  | Occupation number:      0.00000000

  Overall HOMO-LUMO gap:      3.86081670 eV.

  Total energy components:
  | Sum of eigenvalues            :        -180.34714113 Ha       -4907.49540075 eV
  | XC energy correction          :         -42.66856200 Ha       -1161.07064672 eV
  | XC potential correction       :          54.85746062 Ha        1492.74745369 eV
  | Free-atom electrostatic energy:        -146.86369043 Ha       -3996.36434943 eV
  | Hartree energy correction     :          -8.45577141 Ha        -230.09324720 eV
  | vdW energy correction         :           0.00000000 Ha           0.00000000 eV
  | Entropy correction            :           0.00000000 Ha           0.00000000 eV
  | ---------------------------
  | Total energy                  :        -323.47770436 Ha       -8802.27619041 eV
  | Total energy, T -> 0          :        -323.47770436 Ha       -8802.27619041 eV  <-- do not rely on this value for anything but (periodic) metals
  | Electronic free energy        :        -323.47770436 Ha       -8802.27619041 eV

  Derived energy quantities:
  | Kinetic energy                :         322.82986557 Ha        8784.64760021 eV
  | Electrostatic energy          :        -603.63900793 Ha      -16425.85314390 eV
  | Energy correction for multipole
  | error in Hartree potential    :           0.04151245 Ha           1.12961116 eV
  | Sum of eigenvalues per atom                           :        -377.49964621 eV
  | Total energy (T->0) per atom                          :        -677.09816849 eV  <-- do not rely on this value for anything but (periodic) metals
  | Electronic free energy per atom                       :        -677.09816849 eV

  Self-consistency convergence accuracy:
  | Change of charge density      :  0.6848E-01
  | Change of sum of eigenvalues  :  0.3827E+01 eV
  | Change of total energy        :  0.2933E-01 eV

  End self-consistency iteration #     4       :  max(cpu_time)    wall_clock(cpu1)
  | Time for this iteration                    :        1.181 s           1.181 s
  | Charge density update                      :        0.382 s           0.382 s
  | Density mixing                             :        0.009 s           0.009 s
  | Hartree multipole update                   :        0.008 s           0.009 s
  | Hartree multipole summation                :        0.282 s           0.282 s
  | Integration                                :        0.497 s           0.497 s
  | Solution of K.-S. eqns.                    :        0.002 s           0.002 s
  | Total energy evaluation                    :        0.000 s           0.000 s

  Partial memory accounting:
  | Current value for overall tracked memory usage on task 0  :           0.166 MB
  | Peak value for overall tracked memory usage on task 0     :           0.691 MB after allocating gradient_basis_wave
  | Largest tracked array allocation on task 0 so far         :           0.394 MB  when allocating gradient_basis_wave
  Note:  These values currently only include a subset of arrays which are explicitly tracked.
  The "true" memory usage will be greater.
------------------------------------------------------------

------------------------------------------------------------
          Begin self-consistency iteration #    5

  Date     :  20200815, Time     :  004336.681
------------------------------------------------------------
  Evaluating new KS density.
  Integration grid: deviation in total charge (<rho> - N_e) =   5.684342E-14
  Pulay mixing of updated and previous charge densities.

  Evaluating partitioned Hartree potential by multipole expansion.
  | Analytical far-field extrapolation by fixed multipoles:
  | Hartree multipole sum: apparent total charge =  -0.463356E-03
  Summing up the Hartree potential.
  Time summed over all CPUs for potential: real work        0.281 s, elapsed        0.281 s
  | RMS charge density error from multipole expansion :   0.252500E-01

  Integrating Hamiltonian matrix: batch-based integration.
  Time summed over all CPUs for integration: real work        0.498 s, elapsed        0.498 s

  Updating Kohn-Sham eigenvalues and eigenvectors using ELSI and the ELPA eigensolver.
  Finished Cholesky decomposition
  | Time :     0.000 s
  Finished transformation to standard eigenproblem
  | Time :     0.000 s
  Starting LAPACK eigensolver
  Finished solving standard eigenproblem
  | Time :     0.002 s
  Finished back-transformation of eigenvectors
  | Time :     0.000 s

  Obtaining occupation numbers and chemical potential using ELSI.
  | Chemical potential (Fermi level):    -3.58372195eV
  Highest occupied state (VBM) at     -5.52351159 eV
  | Occupation number:      2.00000000

  Lowest unoccupied state (CBM) at    -1.65746540 eV
  | Occupation number:      0.00000000

  Overall HOMO-LUMO gap:      3.86604619 eV.

  Total energy components:
  | Sum of eigenvalues            :        -180.56464563 Ha       -4913.41399931 eV
  | XC energy correction          :         -42.64215875 Ha       -1160.35217772 eV
  | XC potential correction       :          54.82318471 Ha        1491.81475870 eV
  | Free-atom electrostatic energy:        -146.86369043 Ha       -3996.36434943 eV
  | Hartree energy correction     :          -8.23010258 Ha        -223.95248583 eV
  | vdW energy correction         :           0.00000000 Ha           0.00000000 eV
  | Entropy correction            :           0.00000000 Ha           0.00000000 eV
  | ---------------------------
  | Total energy                  :        -323.47741268 Ha       -8802.26825360 eV
  | Total energy, T -> 0          :        -323.47741268 Ha       -8802.26825360 eV  <-- do not rely on this value for anything but (periodic) metals
  | Electronic free energy        :        -323.47741268 Ha       -8802.26825360 eV

  Derived energy quantities:
  | Kinetic energy                :         322.69663681 Ha        8781.02226103 eV
  | Electrostatic energy          :        -603.53189074 Ha      -16422.93833691 eV
  | Energy correction for multipole
  | error in Hartree potential    :           0.04089656 Ha           1.11285199 eV
  | Sum of eigenvalues per atom                           :        -377.95492302 eV
  | Total energy (T->0) per atom                          :        -677.09755797 eV  <-- do not rely on this value for anything but (periodic) metals
  | Electronic free energy per atom                       :        -677.09755797 eV

  Self-consistency convergence accuracy:
  | Change of charge density      :  0.2057E-01
  | Change of sum of eigenvalues  : -0.5919E+01 eV
  | Change of total energy        :  0.7937E-02 eV

  End self-consistency iteration #     5       :  max(cpu_time)    wall_clock(cpu1)
  | Time for this iteration                    :        1.183 s           1.184 s
  | Charge density update                      :        0.382 s           0.382 s
  | Density mixing                             :        0.011 s           0.010 s
  | Hartree multipole update                   :        0.009 s           0.009 s
  | Hartree multipole summation                :        0.282 s           0.282 s
  | Integration                                :        0.498 s           0.499 s
  | Solution of K.-S. eqns.                    :        0.002 s           0.002 s
  | Total energy evaluation                    :        0.000 s           0.000 s

  Partial memory accounting:
  | Current value for overall tracked memory usage on task 0  :           0.166 MB
  | Peak value for overall tracked memory usage on task 0     :           0.691 MB after allocating gradient_basis_wave
  | Largest tracked array allocation on task 0 so far         :           0.394 MB  when allocating gradient_basis_wave
  Note:  These values currently only include a subset of arrays which are explicitly tracked.
  The "true" memory usage will be greater.
------------------------------------------------------------

------------------------------------------------------------
          Begin self-consistency iteration #    6

  Date     :  20200815, Time     :  004337.868
------------------------------------------------------------
  Evaluating new KS density.
  Integration grid: deviation in total charge (<rho> - N_e) =   2.842171E-14
  Pulay mixing of updated and previous charge densities.

  Evaluating partitioned Hartree potential by multipole expansion.
  | Analytical far-field extrapolation by fixed multipoles:
  | Hartree multipole sum: apparent total charge =  -0.467998E-03
  Summing up the Hartree potential.
  Time summed over all CPUs for potential: real work        0.281 s, elapsed        0.281 s
  | RMS charge density error from multipole expansion :   0.257216E-01

  Integrating Hamiltonian matrix: batch-based integration.
  Time summed over all CPUs for integration: real work        0.503 s, elapsed        0.503 s

  Updating Kohn-Sham eigenvalues and eigenvectors using ELSI and the ELPA eigensolver.
  Finished Cholesky decomposition
  | Time :     0.000 s
  Finished transformation to standard eigenproblem
  | Time :     0.000 s
  Starting LAPACK eigensolver
  Finished solving standard eigenproblem
  | Time :     0.001 s
  Finished back-transformation of eigenvectors
  | Time :     0.000 s

  Obtaining occupation numbers and chemical potential using ELSI.
  | Chemical potential (Fermi level):    -3.57788043eV
  Highest occupied state (VBM) at     -5.48189675 eV
  | Occupation number:      2.00000000

  Lowest unoccupied state (CBM) at    -1.66057448 eV
  | Occupation number:      0.00000000

  Overall HOMO-LUMO gap:      3.82132227 eV.

  Total energy components:
  | Sum of eigenvalues            :        -180.53770420 Ha       -4912.68088570 eV
  | XC energy correction          :         -42.64480970 Ha       -1160.42431358 eV
  | XC potential correction       :          54.82659815 Ha        1491.90764312 eV
  | Free-atom electrostatic energy:        -146.86369043 Ha       -3996.36434943 eV
  | Hartree energy correction     :          -8.25776419 Ha        -224.70519650 eV
  | vdW energy correction         :           0.00000000 Ha           0.00000000 eV
  | Entropy correction            :           0.00000000 Ha           0.00000000 eV
  | ---------------------------
  | Total energy                  :        -323.47737037 Ha       -8802.26710208 eV
  | Total energy, T -> 0          :        -323.47737037 Ha       -8802.26710208 eV  <-- do not rely on this value for anything but (periodic) metals
  | Electronic free energy        :        -323.47737037 Ha       -8802.26710208 eV

  Derived energy quantities:
  | Kinetic energy                :         322.63112540 Ha        8779.23960480 eV
  | Electrostatic energy          :        -603.46368607 Ha      -16421.08239331 eV
  | Energy correction for multipole
  | error in Hartree potential    :           0.04139350 Ha           1.12637458 eV
  | Sum of eigenvalues per atom                           :        -377.89852967 eV
  | Total energy (T->0) per atom                          :        -677.09746939 eV  <-- do not rely on this value for anything but (periodic) metals
  | Electronic free energy per atom                       :        -677.09746939 eV

  Self-consistency convergence accuracy:
  | Change of charge density      :  0.1068E-01
  | Change of sum of eigenvalues  :  0.7331E+00 eV
  | Change of total energy        :  0.1152E-02 eV

  End self-consistency iteration #     6       :  max(cpu_time)    wall_clock(cpu1)
  | Time for this iteration                    :        1.183 s           1.190 s
  | Charge density update                      :        0.382 s           0.382 s
  | Density mixing                             :        0.012 s           0.012 s
  | Hartree multipole update                   :        0.008 s           0.008 s
  | Hartree multipole summation                :        0.282 s           0.282 s
  | Integration                                :        0.497 s           0.504 s
  | Solution of K.-S. eqns.                    :        0.002 s           0.002 s
  | Total energy evaluation                    :        0.000 s           0.000 s

  Partial memory accounting:
  | Current value for overall tracked memory usage on task 0  :           0.166 MB
  | Peak value for overall tracked memory usage on task 0     :           0.691 MB after allocating gradient_basis_wave
  | Largest tracked array allocation on task 0 so far         :           0.394 MB  when allocating gradient_basis_wave
  Note:  These values currently only include a subset of arrays which are explicitly tracked.
  The "true" memory usage will be greater.
------------------------------------------------------------

------------------------------------------------------------
          Begin self-consistency iteration #    7

  Date     :  20200815, Time     :  004339.059
------------------------------------------------------------
  Evaluating new KS density.
  Integration grid: deviation in total charge (<rho> - N_e) =   7.105427E-15
  Pulay mixing of updated and previous charge densities.

  Evaluating partitioned Hartree potential by multipole expansion.
  | Analytical far-field extrapolation by fixed multipoles:
  | Hartree multipole sum: apparent total charge =  -0.468704E-03
  Summing up the Hartree potential.
  Time summed over all CPUs for potential: real work        0.291 s, elapsed        0.291 s
  | RMS charge density error from multipole expansion :   0.258113E-01

  Integrating Hamiltonian matrix: batch-based integration.
  Time summed over all CPUs for integration: real work        0.497 s, elapsed        0.497 s

  Updating Kohn-Sham eigenvalues and eigenvectors using ELSI and the ELPA eigensolver.
  Finished Cholesky decomposition
  | Time :     0.000 s
  Finished transformation to standard eigenproblem
  | Time :     0.000 s
  Starting LAPACK eigensolver
  Finished solving standard eigenproblem
  | Time :     0.001 s
  Finished back-transformation of eigenvectors
  | Time :     0.000 s

[...]
  |   Hirshfeld dipole moment :      0.05859472
  |   Hirshfeld second moments:      0.01123626      -0.03221446      -0.02029255
  |                                 -0.03221446      -0.02021998       0.01101440
  |                                 -0.02029255       0.01101440      -0.01596854
  ----------------------------------------------------------------------
  | Atom    12: O
  |   Hirshfeld charge        :     -0.16915951
  |   Free atom volume        :     23.61338643
  |   Hirshfeld volume        :     20.88878412
  |   Hirshfeld dipole vector :      0.03642364       0.01961492       0.00852714
  |   Hirshfeld dipole moment :      0.04223907
  |   Hirshfeld second moments:      0.05348021      -0.02902708      -0.01367954
  |                                 -0.02902708       0.07938675       0.03317234
  |                                 -0.01367954       0.03317234       0.03492099
  ----------------------------------------------------------------------
  | Atom    13: H
  |   Hirshfeld charge        :      0.18620334
  |   Free atom volume        :      9.95071624
  |   Hirshfeld volume        :      5.99336845
  |   Hirshfeld dipole vector :      0.09021289      -0.08238701      -0.04640163
  |   Hirshfeld dipole moment :      0.13068701
  |   Hirshfeld second moments:      0.12024456      -0.00004591      -0.00101407
  |                                 -0.00004591       0.12549530       0.00554456
  |                                 -0.00101407       0.00554456       0.11154349
  ----------------------------------------------------------------------


  Total energy components:
  | Sum of eigenvalues            :        -180.53712407 Ha       -4912.66509955 eV
  | XC energy correction          :         -42.64147965 Ha       -1160.33369840 eV
  | XC potential correction       :          54.82237492 Ha        1491.79272310 eV
  | Free-atom electrostatic energy:        -146.86369043 Ha       -3996.36434943 eV
  | Hartree energy correction     :          -8.25742674 Ha        -224.69601406 eV
  | vdW energy correction         :          -0.00324441 Ha          -0.08828479 eV
  | Entropy correction            :           0.00000000 Ha           0.00000000 eV
  | ---------------------------
  | Total energy                  :        -323.48059038 Ha       -8802.35472313 eV
  | Total energy, T -> 0          :        -323.48059038 Ha       -8802.35472313 eV  <-- do not rely on this value for anything but (periodic) metals
  | Electronic free energy        :        -323.48059038 Ha       -8802.35472313 eV

  Derived energy quantities:
  | Kinetic energy                :         322.59521656 Ha        8778.26247565 eV
  | Electrostatic energy          :        -603.43108288 Ha      -16420.19521559 eV
  | Energy correction for multipole
  | error in Hartree potential    :           0.04144029 Ha           1.12764775 eV
  | Sum of eigenvalues per atom                           :        -377.89731535 eV
  | Total energy (T->0) per atom                          :        -677.10420947 eV  <-- do not rely on this value for anything but (periodic) metals
  | Electronic free energy per atom                       :        -677.10420947 eV

  atomic forces [eV/Ang]:
  -----------------------
  atom #    1
   Hellmann-Feynman              : -0.198489E+00 -0.270090E+00  0.928154E+00
   Ionic forces                  :  0.000000E+00  0.000000E+00  0.000000E+00
   Multipole                     :  0.495192E-01  0.166418E+00 -0.255685E+00
   Pulay + GGA                   : -0.704705E+00  0.238987E+00 -0.134202E+01
   Van der Waals                 :  0.283994E-02  0.790533E-02 -0.919447E-03
   ----------------------------------------------------------------
   Total forces(   1)            : -0.850835E+00  0.143221E+00 -0.670467E+00
  atom #    2
   Hellmann-Feynman              :  0.292470E+00  0.805438E-02 -0.914263E-01
   Ionic forces                  :  0.000000E+00  0.000000E+00  0.000000E+00
   Multipole                     :  0.178381E+00  0.325500E-01 -0.179095E-01
   Pulay + GGA                   : -0.145752E+00  0.449504E-01  0.279542E-01
   Van der Waals                 :  0.344609E-02 -0.499436E-02 -0.604685E-02
   ----------------------------------------------------------------
   Total forces(   2)            :  0.328545E+00  0.805605E-01 -0.874284E-01
  atom #    3
   Hellmann-Feynman              :  0.383835E+01  0.104904E+02 -0.396981E+01
   Ionic forces                  :  0.000000E+00  0.000000E+00  0.000000E+00
   Multipole                     : -0.156662E+00  0.177122E+00 -0.867532E+00
   Pulay + GGA                   : -0.273925E+01 -0.998410E+01  0.550626E+01
   Van der Waals                 :  0.345335E-02 -0.431462E-02 -0.862434E-02
   ----------------------------------------------------------------
   Total forces(   3)            :  0.945886E+00  0.679058E+00  0.660290E+00
  atom #    4
   Hellmann-Feynman              : -0.251746E+00 -0.162301E+00 -0.993140E-01
   Ionic forces                  :  0.000000E+00  0.000000E+00  0.000000E+00
   Multipole                     : -0.115903E-01 -0.765184E-01 -0.794396E-01
   Pulay + GGA                   : -0.672533E-01  0.228996E+00  0.432827E-01
   Van der Waals                 :  0.843846E-03  0.971852E-02 -0.973842E-02
   ----------------------------------------------------------------
   Total forces(   4)            : -0.329746E+00 -0.105221E-03 -0.145209E+00
  atom #    5
   Hellmann-Feynman              : -0.242885E+00 -0.274391E+00 -0.746504E-01
   Ionic forces                  :  0.000000E+00  0.000000E+00  0.000000E+00
   Multipole                     : -0.869002E-01 -0.417466E-01 -0.491358E-01
   Pulay + GGA                   :  0.238807E+00  0.626340E-01 -0.328270E-01
   Van der Waals                 : -0.259943E-03  0.246621E-03 -0.110340E-01
   ----------------------------------------------------------------
   Total forces(   5)            : -0.912376E-01 -0.253257E+00 -0.167647E+00
  atom #    6
   Hellmann-Feynman              :  0.260344E+00 -0.205418E+00  0.283998E+00
   Ionic forces                  :  0.000000E+00  0.000000E+00  0.000000E+00
   Multipole                     : -0.146551E+00  0.654965E+00  0.250236E+00
   Pulay + GGA                   :  0.130666E+00 -0.766375E+00 -0.523995E+00
   Van der Waals                 :  0.104169E-03  0.673424E-02 -0.137577E-02
   ----------------------------------------------------------------
   Total forces(   6)            :  0.244563E+00 -0.310094E+00  0.886350E-02
  atom #    7
   Hellmann-Feynman              : -0.240666E+00 -0.568388E-01 -0.412215E-01
   Ionic forces                  :  0.000000E+00  0.000000E+00  0.000000E+00
   Multipole                     : -0.118457E+00  0.499454E-01  0.342096E-01
   Pulay + GGA                   :  0.114772E+00  0.236722E-01  0.214171E-01
   Van der Waals                 : -0.227145E-02  0.551915E-02  0.907119E-02
   ----------------------------------------------------------------
   Total forces(   7)            : -0.246623E+00  0.222980E-01  0.234765E-01
  atom #    8
   Hellmann-Feynman              :  0.281492E-01 -0.829761E-01  0.138472E+00
   Ionic forces                  :  0.000000E+00  0.000000E+00  0.000000E+00
   Multipole                     :  0.165207E-01  0.675436E-01  0.126414E+00
   Pulay + GGA                   : -0.437907E-01 -0.371491E-01 -0.935459E-01
   Van der Waals                 : -0.283352E-02  0.114291E-01  0.145665E-02
   ----------------------------------------------------------------
   Total forces(   8)            : -0.195428E-02 -0.411525E-01  0.172796E+00
  atom #    9
   Hellmann-Feynman              :  0.785346E-01  0.300680E-01 -0.173624E+00
   Ionic forces                  :  0.000000E+00  0.000000E+00  0.000000E+00
   Multipole                     :  0.218732E-01  0.130991E+00 -0.911973E-02
   Pulay + GGA                   : -0.450281E-01 -0.110680E+00  0.168433E-01
   Van der Waals                 : -0.317023E-02  0.199997E-02  0.321378E-02
   ----------------------------------------------------------------
   Total forces(   9)            :  0.522094E-01  0.523785E-01 -0.162686E+00
  atom #   10
   Hellmann-Feynman              :  0.361426E+01  0.583205E+01  0.220600E+01
   Ionic forces                  :  0.000000E+00  0.000000E+00  0.000000E+00
   Multipole                     :  0.328468E-01 -0.306862E-01  0.285335E+00
   Pulay + GGA                   : -0.240247E+01 -0.310830E+01 -0.245283E-01
   Van der Waals                 :  0.417765E-02 -0.161317E-01  0.939771E-02
   ----------------------------------------------------------------
   Total forces(  10)            :  0.124882E+01  0.267694E+01  0.247621E+01
  atom #   11
   Hellmann-Feynman              :  0.407366E+01 -0.226756E+01  0.136983E+02
   Ionic forces                  :  0.000000E+00  0.000000E+00  0.000000E+00
   Multipole                     :  0.522821E-01 -0.647166E+00  0.821911E+00
   Pulay + GGA                   : -0.326105E+01  0.350682E+01 -0.133970E+02
   Van der Waals                 : -0.349494E-02 -0.106442E-01  0.301269E-02
   ----------------------------------------------------------------
   Total forces(  11)            :  0.861396E+00  0.581448E+00  0.112627E+01
  atom #   12
   Hellmann-Feynman              : -0.148178E+02 -0.181472E+01 -0.553356E+01
   Ionic forces                  :  0.000000E+00  0.000000E+00  0.000000E+00
   Multipole                     : -0.106808E+01 -0.119077E+01 -0.326376E+00
   Pulay + GGA                   :  0.142866E+02  0.453906E+00  0.303667E+01
   Van der Waals                 : -0.123997E-02 -0.157351E-02  0.117764E-01
   ----------------------------------------------------------------
   Total forces(  12)            : -0.160053E+01 -0.255315E+01 -0.281149E+01
  atom #   13
   Hellmann-Feynman              : -0.255969E+00 -0.125326E+01 -0.553067E+00
   Ionic forces                  :  0.000000E+00  0.000000E+00  0.000000E+00
   Multipole                     :  0.392496E-01 -0.347376E-01 -0.217770E-01
   Pulay + GGA                   : -0.341522E+00  0.209403E+00  0.148254E+00
   Van der Waals                 : -0.159499E-02 -0.589457E-02 -0.189645E-03
   ----------------------------------------------------------------
   Total forces(  13)            : -0.559836E+00 -0.108449E+01 -0.426779E+00

  Timings for VdW correction (Tkatchenko-Scheffler 2009 or later):
  | CPU time:        0.089 s, Wall clock time:        0.089 s.
  Removing unitary transformations (pure translations, rotations) from forces on atoms.
  Atomic forces before filtering:
  | Net force on center of mass :   0.649444E-03 -0.635497E-02 -0.380655E-02 eV/A
  | Net torque on center of mass:  -0.257386E-02  0.359010E-02  0.796945E-02 eV
  Atomic forces after filtering:
  | Net force on center of mass :   0.178406E-15  0.713624E-15  0.713624E-15 eV/A
  | Net torque on center of mass:   0.802472E-15  0.131287E-15 -0.188817E-15 eV

  Energy and forces in a compact form:
  | Total energy uncorrected      :         -0.880235472313025E+04 eV
  | Total energy corrected        :         -0.880235472313025E+04 eV  <-- do not rely on this value for anything but (periodic) metals
  | Electronic free energy        :         -0.880235472313025E+04 eV
  Total atomic forces (unitary forces cleaned) [eV/Ang]:
  |   1         -0.850812103942904E+00          0.143605924271782E+00         -0.670081064361590E+00
  |   2          0.328568143938133E+00          0.806514359446622E-01         -0.868216375459801E-01
  |   3          0.946194593528792E+00          0.679648235791755E+00          0.660578877307260E+00
  |   4         -0.329551917593938E+00          0.399364429123523E-03         -0.144878990030538E+00
  |   5         -0.909508962470211E-01         -0.252394134241872E+00         -0.167567996567911E+00
  |   6          0.244778500306777E+00         -0.309615824316371E+00          0.921766762063678E-02
  |   7         -0.246404234244061E+00          0.230692625762541E-01          0.236113533461630E-01
  |   8         -0.194427588486655E-02         -0.408273291488321E-01          0.173223985136388E+00
  |   9          0.527682526091886E-01          0.527872389888295E-01         -0.162210128548026E+00
  |  10          0.124834151716913E+01          0.267738619253158E+01          0.247644316866348E+01
  |  11          0.860617238540620E+00          0.581758119949844E+00          0.112654741310087E+01
  |  12         -0.160109828819740E+01         -0.255247455251584E+01         -0.281144291713360E+01
  |  13         -0.560506529982453E+00         -0.108399393426092E+01         -0.426619730987148E+00

  ------------------------------------ 
  Start decomposition of the XC Energy 
  ------------------------------------ 
  X and C from original XC functional choice 
  Hartree-Fock Energy :          0.000000000 Ha              0.000000000 eV
  X Energy            :        -41.040862030 Ha          -1116.778676901 eV
  C Energy            :         -1.600617620 Ha            -43.555021500 eV
  Total XC Energy     :        -42.641479650 Ha          -1160.333698401 eV
  ------------------------------------ 
  LDA X and C from self-consistent density 
  X Energy LDA        :        -37.259259112 Ha          -1013.876025873 eV
  C Energy LDA        :         -3.138748255 Ha            -85.409685604 eV
  ------------------------------------ 
  End decomposition of the XC Energy 
  ------------------------------------ 

------------------------------------------------------------

------------------------------------------------------------------------------
  Final output of selected total energy values:

  The following output summarizes some interesting total energy values
  at the end of a run (AFTER all relaxation, molecular dynamics, etc.).

  | Total energy of the DFT / Hartree-Fock s.c.f. calculation      :          -8802.354723130 eV
  | Final zero-broadening corrected energy (caution - metals only) :          -8802.354723130 eV
  | For reference only, the value of 1 Hartree used in FHI-aims is :             27.211384500 eV

  Before relying on these values, please be sure to understand exactly which
  total energy value is referred to by a given number. Different objects may
  all carry the same name 'total energy'. Definitions:

  Total energy of the DFT / Hartree-Fock s.c.f. calculation:
  | Note that this energy does not include ANY quantities calculated after the
  | s.c.f. cycle, in particular not ANY RPA, MP2, etc. many-body perturbation terms.

  Final zero-broadening corrected energy:
  | For metallic systems only, a broadening of the occupation numbers at the Fermi
  | level can be extrapolated back to zero broadening by an electron-gas inspired
  | formula. For all systems that are not real metals, this value can be
  | meaningless and should be avoided.

------------------------------------------------------------------------------
  Methods described in the following list of references were used in this FHI-aims run.
  If you publish the results, please make sure to cite these reference if they apply.
  FHI-aims is an academic code, and for our developers (often, Ph.D. students
  and postdocs), scientific credit in the community is essential.
  Thank you for helping us!

  For any use of FHI-aims, please cite:

    Volker Blum, Ralf Gehrke, Felix Hanke, Paula Havu, Ville Havu,
    Xinguo Ren, Karsten Reuter, and Matthias Scheffler
    'Ab initio molecular simulations with numeric atom-centered orbitals'
    Computer Physics Communications 180, 2175-2196 (2009)
    http://dx.doi.org/10.1016/j.cpc.2009.06.022


  The scalable eigensolver library ELPA was used in your run.
  ELPA is essential especially for large systems on hundreds or thousands of CPUs.
  For ELPA, please cite:

    Andreas Marek, Volker Blum, Rainer Johanni, Ville Havu, Bruno Lang,
    Thomas Auckenthaler, Alexander Heinecke, Hans-Joachim Bungartz, and Hermann Lederer,
    'The ELPA Library - Scalable Parallel Eigenvalue Solutions
    for Electronic Structure Theory and Computational Science'
    The Journal of Physics: Condensed Matter 26, 213201 (2014).
    http://dx.doi.org/10.1088/0953-8984/26/21/213201


  The ELSI infrastructure was used in your run to solve the Kohn-Sham electronic structure.
  Please check out http://elsi-interchange.org to learn more.
  If scalability is important for your project, please acknowledge ELSI by citing:

    V. W-z. Yu, F. Corsetti, A. Garcia, W. P. Huhn, M. Jacquelin, W. Jia,
    B. Lange, L. Lin, J. Lu, W. Mi, A. Seifitokaldani, A. Vazquez-Mayagoitia,
    C. Yang, H. Yang, and V. Blum
    'ELSI: A unified software interface for Kohn-Sham electronic structure solvers'
    Computer Physics Communications 222, 267-285 (2018).
    http://dx.doi.org/10.1016/j.cpc.2017.09.007


  For the real-space grid partitioning and parallelization used in this calculation, please cite:

    Ville Havu, Volker Blum, Paula Havu, and Matthias Scheffler,
    'Efficient O(N) integration for all-electron electronic structure calculation'
    'using numerically tabulated basis functions'
    Journal of Computational Physics 228, 8367-8379 (2009).
    http://dx.doi.org/10.1016/j.jcp.2009.08.008

  Of course, there are many other important community references, e.g., those cited in the
  above references. Our list is limited to references that describe implementations in the
  FHI-aims code. The reason is purely practical (length of this list) - please credit others as well.

------------------------------------------------------------
          Leaving FHI-aims.
          Date     :  20200815, Time     :  004352.135

          Computational steps:
          | Number of self-consistency cycles          :           15
          | Number of SCF (re)initializations          :            1

          Detailed time accounting                     :  max(cpu_time)    wall_clock(cpu1)
          | Total time                                 :       21.399 s          21.476 s
          | Preparation time                           :        0.144 s           0.145 s
          | Boundary condition initalization           :        0.000 s           0.000 s
          | Grid partitioning                          :        0.110 s           0.111 s
          | Preloading free-atom quantities on grid    :        0.002 s           0.002 s
          | Free-atom superposition energy             :        0.085 s           0.085 s
          | Total time for integrations                :        8.140 s           8.157 s
          | Total time for solution of K.-S. equations :        0.034 s           0.034 s
          | Total time for density & force components  :        6.687 s           6.696 s
          | Total time for mixing                      :        0.196 s           0.196 s
          | Total time for Hartree multipole update    :        0.129 s           0.134 s
          | Total time for Hartree multipole sum       :        5.479 s           5.488 s
          | Total time for total energy evaluation     :        0.003 s           0.003 s
          | Total time for vdW correction              :        0.089 s           0.089 s

          Partial memory accounting:
          | Residual value for overall tracked memory usage across tasks :           0.000 MB (should be 0.000 MB)
          | Peak values for overall tracked memory usage (after allocating hessian_basis_wave):
          |   Minimum:        1.611 MB (on task 1)
          |   Maximum:        1.611 MB (on task 1)
          |   Average:        1.611 MB
          | Largest tracked array allocation (hessian_basis_wave):
          |   Minimum:        0.787 MB (on task 1)
          |   Maximum:        0.787 MB (on task 1)
          |   Average:        0.787 MB
          Note:  These values currently only include a subset of arrays which are explicitly tracked.
          The "true" memory usage will be greater.

          Have a nice day.
------------------------------------------------------------
