  MPI-parallelism will be employed.
------------------------------------------------------------
          Invoking FHI-aims ...
          Version 171221_1
          Compiled on 2019/09/09 at 14:39:39 on host puhti-login2.bullx.

          When using FHI-aims, please cite the following reference:

          Volker Blum, Ralf Gehrke, Felix Hanke, Paula Havu,
          Ville Havu, Xinguo Ren, Karsten Reuter, and Matthias Scheffler,
          'Ab Initio Molecular Simulations with Numeric Atom-Centered Orbitals',
          Computer Physics Communications 180, 2175-2196 (2009)

          For any questions about FHI-aims, please visit the aimsclub website
          with its forums and wiki. Contributions to both the forums and the
          wiki are warmly encouraged - they are for you, and everyone is welcome there.

------------------------------------------------------------



  Date     :  20200815, Time     :  005345.804
  Time zero on CPU 1             :   0.111200000000000E-01  s.
  Internal wall clock time zero  :           366684825.804  s.

  FHI-aims created a unique identifier for this run for later identification
  aims_uuid : B82251DB-6408-42CA-A59A-827673736838

  Using        1 parallel tasks.
  Task        0 on host r18c36.bullx reporting.

  Performing system and environment tests:
  | Environment variable OMP_NUM_THREADS correctly set to 1.
  | Stacksize not measured: no C compiler
  | Checking for scalapack...
  | Testing pdtran()...
  | All pdtran() tests passed.

  Obtaining array dimensions for all initial allocations:
  
  -----------------------------------------------------------------------
  Parsing control.in (first pass over file, find array dimensions only).
  The contents of control.in will be repeated verbatim below
  unless switched off by setting 'verbatim_writeout .false.' .
  in the first line of control.in .
  -----------------------------------------------------------------------
  
  #########################################################################################
  #
  #  Volker Blum, FHI 2009 : Test run input file control.in for simple H2O
  #
  #########################################################################################
  #
  #  Physical model
  #
    xc                 pbe
    vdw_correction_hirshfeld
    spin               none
    relativistic       none
    charge             0.
  #
  #  SCF convergence
  #
    occupation_type    gaussian 0.01
    mixer              pulay
      n_max_pulay        10
      charge_mix_param   0.2
    sc_accuracy_rho    1E-5
    sc_accuracy_eev    1E-3
    sc_accuracy_etot   1E-6
    sc_accuracy_forces 1E-4
    sc_iter_limit      100
  #
  #  Relaxation
  #
  #  relax_geometry   bfgs 1.e-3
  #
  ################################################################################
  #
  #  FHI-aims code project
  #  VB, Fritz-Haber Institut, 2009
  #
  #  Suggested "light" defaults for H atom (to be pasted into control.in file)
  #  Be sure to double-check any results obtained with these settings for post-processing,
  #  e.g., with the "tight" defaults and larger basis sets.
  #
  ################################################################################
    species        H
  #     global species definitions
      nucleus             1
      mass                1.00794
  #
      l_hartree           4
  #
      cut_pot             3.5  1.5  1.0
      basis_dep_cutoff    1e-4
  #
      radial_base         24 5.0
      radial_multiplier   1
      angular_grids       specified
        division   0.2421   50
        division   0.3822  110
        division   0.4799  194
        division   0.5341  302
  #      division   0.5626  434
  #      division   0.5922  590
  #      division   0.6542  770
  #      division   0.6868 1202
  #      outer_grid  770
        outer_grid  302
  ################################################################################
  #
  #  Definition of "minimal" basis
  #
  ################################################################################
  #     valence basis states
      valence      1  s   1.
  #     ion occupancy
      ion_occ      1  s   0.5
  ################################################################################
  #
  #  Suggested additional basis functions. For production calculations,
  #  uncomment them one after another (the most important basis functions are
  #  listed first).
  #
  #  Basis constructed for dimers: 0.5 A, 0.7 A, 1.0 A, 1.5 A, 2.5 A
  #
  ################################################################################
  #  "First tier" - improvements: -1014.90 meV to -62.69 meV
       hydro 2 s 2.1
       hydro 2 p 3.5
  #  "Second tier" - improvements: -12.89 meV to -1.83 meV
  #     hydro 1 s 0.85
  #     hydro 2 p 3.7
  #     hydro 2 s 1.2
  #     hydro 3 d 7
  #  "Third tier" - improvements: -0.25 meV to -0.12 meV
  #     hydro 4 f 11.2
  #     hydro 3 p 4.8
  #     hydro 4 d 9
  #     hydro 3 s 3.2
  ################################################################################
  #
  #  FHI-aims code project
  #  VB, Fritz-Haber Institut, 2009
  #
  #  Suggested "light" defaults for C atom (to be pasted into control.in file)
  #  Be sure to double-check any results obtained with these settings for post-processing,
  #  e.g., with the "tight" defaults and larger basis sets.
  #
  ################################################################################
    species        C
  #     global species definitions
      nucleus             6
      mass                12.0107
  #
      l_hartree           4
  #
      cut_pot             3.5  1.5  1.0
      basis_dep_cutoff    1e-4
  #
      radial_base         34 5.0
      radial_multiplier   1
      angular_grids specified
        division   0.3326   50
        division   0.5710  110
        division   0.7727  194
        division   0.8772  302
  #      division   0.9334  434
  #      division   0.9625  590
  #      division   0.9924  770
  #      division   1.0230  974
  #      division   1.4589 1202
  #     outer_grid  974
       outer_grid 302
  ################################################################################
  #
  #  Definition of "minimal" basis
  #
  ################################################################################
  #     valence basis states
      valence      2  s   2.
      valence      2  p   2.
  #     ion occupancy
      ion_occ      2  s   1.
      ion_occ      2  p   1.
  ################################################################################
  #
  #  Suggested additional basis functions. For production calculations,
  #  uncomment them one after another (the most important basis functions are
  #  listed first).
  #
  #  Constructed for dimers: 1.0 A, 1.25 A, 1.5 A, 2.0 A, 3.0 A
  #
  ################################################################################
  #  "First tier" - improvements: -1214.57 meV to -155.61 meV
       hydro 2 p 1.7
       hydro 3 d 6
       hydro 2 s 4.9
  #  "Second tier" - improvements: -67.75 meV to -5.23 meV
  #     hydro 4 f 9.8
  #     hydro 3 p 5.2
  #     hydro 3 s 4.3
  #     hydro 5 g 14.4
  #     hydro 3 d 6.2
  #  "Third tier" - improvements: -2.43 meV to -0.60 meV
  #     hydro 2 p 5.6
  #     hydro 2 s 1.4
  #     hydro 3 d 4.9
  #     hydro 4 f 11.2
  #  "Fourth tier" - improvements: -0.39 meV to -0.18 meV
  #     hydro 2 p 2.1
  #     hydro 5 g 16.4
  #     hydro 4 d 13.2
  #     hydro 3 s 13.6
  #     hydro 4 f 17.6
  #  Further basis functions - improvements: -0.08 meV and below
  #     hydro 3 s 2
  #     hydro 3 p 6
  #     hydro 4 d 20
  ################################################################################
  #
  #  FHI-aims code project
  #  VB, Fritz-Haber Institut, 2009
  #
  #  Suggested "light" defaults for N atom (to be pasted into control.in file)
  #  Be sure to double-check any results obtained with these settings for post-processing,
  #  e.g., with the "tight" defaults and larger basis sets.
  #
  ################################################################################
    species        N
  #     global species definitions
      nucleus             7
      mass                14.0067
  #
      l_hartree           4
  #
      cut_pot             3.5  1.5  1.0
      basis_dep_cutoff    1e-4
  #
      radial_base         35 5.0
      radial_multiplier   1
      angular_grids       specified
        division   0.2599   50
        division   0.4601  110
        division   0.5885  194
        division   0.6503  302
  #      division   0.6939  434
  #      division   0.7396  590
  #      division   0.7632  770
  #      division   0.8122  974
  #      division   1.1604 1202
  #      outer_grid  974
        outer_grid  302
  ################################################################################
  #
  #  Definition of "minimal" basis
  #
  ################################################################################
  #     valence basis states
      valence      2  s   2.
      valence      2  p   3.
  #     ion occupancy
      ion_occ      2  s   1.
      ion_occ      2  p   2.
  ################################################################################
  #
  #  Suggested additional basis functions. For production calculations,
  #  uncomment them one after another (the most important basis functions are
  #  listed first).
  #
  #  Constructed for dimers: 1.0 A, 1.1 A, 1.5 A, 2.0 A, 3.0 A
  #
  ################################################################################
  #  "First tier" - improvements: -1193.42 meV to -220.60 meV
       hydro 2 p 1.8
       hydro 3 d 6.8
       hydro 3 s 5.8
  #  "Second tier" - improvements: -80.21 meV to -6.86 meV
  #     hydro 4 f 10.8
  #     hydro 3 p 5.8
  #     hydro 1 s 0.8
  #     hydro 5 g 16
  #     hydro 3 d 4.9
  #  "Third tier" - improvements: -4.29 meV to -0.53 meV
  #     hydro 3 s 16
  #     ionic 2 p auto
  #     hydro 3 d 6.6
  #     hydro 4 f 11.6
  #  "Fourth tier" - improvements: -0.75 meV to -0.25 meV
  #     hydro 2 p 4.5
  #     hydro 2 s 2.4
  #     hydro 5 g 14.4
  #     hydro 4 d 14.4
  #     hydro 4 f 16.8
  # Further basis functions - -0.21 meV and below
  #     hydro 3 p 14.8
  #     hydro 3 s 4.4
  #     hydro 3 d 19.6
  #     hydro 5 g 12.8
  ################################################################################
  #
  #  FHI-aims code project
  #  VB, Fritz-Haber Institut, 2009
  #
  #  Suggested "light" defaults for O atom (to be pasted into control.in file)
  #  Be sure to double-check any results obtained with these settings for post-processing,
  #  e.g., with the "tight" defaults and larger basis sets.
  #
  ################################################################################
    species        O
  #     global species definitions
      nucleus             8
      mass                15.9994
  #
      l_hartree           4
  #
      cut_pot             3.5  1.5  1.0
      basis_dep_cutoff    1e-4
  #
      radial_base         36 5.0
      radial_multiplier   1
       angular_grids specified
        division   0.2659   50
        division   0.4451  110
        division   0.6052  194
        division   0.7543  302
  #      division   0.8014  434
  #      division   0.8507  590
  #      division   0.8762  770
  #      division   0.9023  974
  #      division   1.2339 1202
  #      outer_grid 974
        outer_grid 302
  ################################################################################
  #
  #  Definition of "minimal" basis
  #
  ################################################################################
  #     valence basis states
      valence      2  s   2.
      valence      2  p   4.
  #     ion occupancy
      ion_occ      2  s   1.
      ion_occ      2  p   3.
  ################################################################################
  #
  #  Suggested additional basis functions. For production calculations,
  #  uncomment them one after another (the most important basis functions are
  #  listed first).
  #
  #  Constructed for dimers: 1.0 A, 1.208 A, 1.5 A, 2.0 A, 3.0 A
  #
  ################################################################################
  #  "First tier" - improvements: -699.05 meV to -159.38 meV
       hydro 2 p 1.8
       hydro 3 d 7.6
       hydro 3 s 6.4
  #  "Second tier" - improvements: -49.91 meV to -5.39 meV
  #     hydro 4 f 11.6
  #     hydro 3 p 6.2
  #     hydro 3 d 5.6
  #     hydro 5 g 17.6
  #     hydro 1 s 0.75
  #  "Third tier" - improvements: -2.83 meV to -0.50 meV
  #     ionic 2 p auto
  #     hydro 4 f 10.8
  #     hydro 4 d 4.7
  #     hydro 2 s 6.8
  #  "Fourth tier" - improvements: -0.40 meV to -0.12 meV
  #     hydro 3 p 5
  #     hydro 3 s 3.3
  #     hydro 5 g 15.6
  #     hydro 4 f 17.6
  #     hydro 4 d 14
  # Further basis functions - -0.08 meV and below
  #     hydro 3 s 2.1
  #     hydro 4 d 11.6
  #     hydro 3 p 16
  #     hydro 2 s 17.2
  
  -----------------------------------------------------------------------
  Completed first pass over input file control.in .
  -----------------------------------------------------------------------
  
  
  -----------------------------------------------------------------------
  Parsing geometry.in (first pass over file, find array dimensions only).
  The contents of geometry.in will be repeated verbatim below
  unless switched off by setting 'verbatim_writeout .false.' .
  in the first line of geometry.in .
  -----------------------------------------------------------------------
  
  atom  0.00000 0.00000 0.00000 C
  atom  1.09300 0.00000 0.00000 H
  atom  -0.47961 0.00000 -1.41207 N
  atom  -1.38506 -0.46962 -1.44997 H
  atom  -0.56974 0.96386 -1.72666 H
  atom  -0.49584 1.26211 0.72868 C
  atom  -1.58789 1.28919 0.74431 H
  atom  -0.13407 1.27425 1.75947 H
  atom  -0.13407 2.16087 0.22380 H
  atom  -0.39425 -1.28861 0.74398 C
  atom  -0.10189 -1.56493 1.88303 O
  atom  -1.10210 -2.13717 0.06896 O
  atom  -1.97783 -1.90164 0.41910 H
  
  -----------------------------------------------------------------------
  Completed first pass over input file geometry.in .
  -----------------------------------------------------------------------
  

  Basic array size parameters:
  | Number of species                 :        4
  | Number of atoms                   :       13
  | Max. basis fn. angular momentum   :        2
  | Max. atomic/ionic basis occupied n:        2
  | Max. number of basis fn. types    :        2
  | Max. radial fns per species/type  :        3
  | Max. logarithmic grid size        :     1301
  | Max. radial integration grid size :       36
  | Max. angular integration grid size:      302
  | Max. angular grid division number :        8
  | Radial grid for Hartree potential :     1301
  | Number of spin channels           :        1

------------------------------------------------------------
          Reading file control.in.
------------------------------------------------------------
  XC: Using PBE gradient-corrected functionals.
  Spin treatment: No spin polarisation.
  Non-relativistic treatment of kinetic energy.
  Charge =   0.000000E+00: Neutral system requested explicitly.
  Occupation type: Gaussian broadening, width =   0.100000E-01 eV.
  Using pulay charge density mixing.
  Pulay mixing - number of memorized iterations:   10
  Charge density mixing - mixing parameter:     0.2000
  Convergence accuracy of self-consistent charge density:  0.1000E-04
  Convergence accuracy of sum of eigenvalues:  0.1000E-02
  Convergence accuracy of total energy:  0.1000E-05
  Convergence accuracy of forces:  0.1000E-03
  Maximum number of s.-c. iterations  :   100
 
  Reading configuration options for species H                   .
  | Found nuclear charge :   1.0000
  | Found atomic mass :    1.00794000000000      amu
  | Found l_max for Hartree potential  :   4
  | Found cutoff potl. onset [A], width [A], scale factor :    3.50000    1.50000    1.00000
  | Threshold for basis-dependent cutoff potential is   0.100000E-03
  | Found data for basic radial integration grid :    24 points, outermost radius =    5.000 A
  | Found multiplier for basic radial grid :   1
  | Found angular grid specification: user-specified.
  | Specified grid contains     5 separate shells.
  | Check grid settings after all constraints further below.
  | Found free-atom valence shell :  1 s   1.000
  | No ionic wave fns used. Skipping ion_occ.
  | Found hydrogenic basis function :  2 s   2.100
  | Found hydrogenic basis function :  2 p   3.500
  Species H                   : Missing cutoff potential type.
  Defaulting to exp(1/x)/(1-x)^2 type cutoff potential.
  Species H : No 'logarithmic' tag. Using default grid for free atom:
  | Default logarithmic grid data [bohr] : 0.1000E-03 0.1000E+03 0.1012E+01
  Species H : On-site basis accuracy parameter (for Gram-Schmidt orthonormalisation) not specified.
  Using default value basis_acc =  0.1000000E-03.
  Species H                   : Using default innermost maximum threshold i_radial=  2 for radial functions.
  Species H                   : Default cutoff onset for free atom density etc. : 0.35000000E+01 AA.
  Species H                   : Basic radial grid will be enhanced according to radial_multiplier =   1, to contain    24 grid points.
 
  Reading configuration options for species C                   .
  | Found nuclear charge :   6.0000
  | Found atomic mass :    12.0107000000000      amu
  | Found l_max for Hartree potential  :   4
  | Found cutoff potl. onset [A], width [A], scale factor :    3.50000    1.50000    1.00000
  | Threshold for basis-dependent cutoff potential is   0.100000E-03
  | Found data for basic radial integration grid :    34 points, outermost radius =    5.000 A
  | Found multiplier for basic radial grid :   1
  | Found angular grid specification: user-specified.
  | Specified grid contains     5 separate shells.
  | Check grid settings after all constraints further below.
  | Found free-atom valence shell :  2 s   2.000
  | Found free-atom valence shell :  2 p   2.000
  | No ionic wave fns used. Skipping ion_occ.
  | No ionic wave fns used. Skipping ion_occ.
  | Found hydrogenic basis function :  2 p   1.700
  | Found hydrogenic basis function :  3 d   6.000
  | Found hydrogenic basis function :  2 s   4.900
  Species C                   : Missing cutoff potential type.
  Defaulting to exp(1/x)/(1-x)^2 type cutoff potential.
  Species C : No 'logarithmic' tag. Using default grid for free atom:
  | Default logarithmic grid data [bohr] : 0.1000E-03 0.1000E+03 0.1012E+01
  Species C : On-site basis accuracy parameter (for Gram-Schmidt orthonormalisation) not specified.
  Using default value basis_acc =  0.1000000E-03.
  Species C                   : Using default innermost maximum threshold i_radial=  2 for radial functions.
  Species C                   : Default cutoff onset for free atom density etc. : 0.35000000E+01 AA.
  Species C                   : Basic radial grid will be enhanced according to radial_multiplier =   1, to contain    34 grid points.
 
  Reading configuration options for species N                   .
  | Found nuclear charge :   7.0000
  | Found atomic mass :    14.0067000000000      amu
  | Found l_max for Hartree potential  :   4
  | Found cutoff potl. onset [A], width [A], scale factor :    3.50000    1.50000    1.00000
  | Threshold for basis-dependent cutoff potential is   0.100000E-03
  | Found data for basic radial integration grid :    35 points, outermost radius =    5.000 A
  | Found multiplier for basic radial grid :   1
  | Found angular grid specification: user-specified.
  | Specified grid contains     5 separate shells.
  | Check grid settings after all constraints further below.
  | Found free-atom valence shell :  2 s   2.000
  | Found free-atom valence shell :  2 p   3.000
  | No ionic wave fns used. Skipping ion_occ.
  | No ionic wave fns used. Skipping ion_occ.
  | Found hydrogenic basis function :  2 p   1.800
  | Found hydrogenic basis function :  3 d   6.800
  | Found hydrogenic basis function :  3 s   5.800
  Species N                   : Missing cutoff potential type.
  Defaulting to exp(1/x)/(1-x)^2 type cutoff potential.
  Species N : No 'logarithmic' tag. Using default grid for free atom:
  | Default logarithmic grid data [bohr] : 0.1000E-03 0.1000E+03 0.1012E+01
  Species N : On-site basis accuracy parameter (for Gram-Schmidt orthonormalisation) not specified.
  Using default value basis_acc =  0.1000000E-03.
  Species N                   : Using default innermost maximum threshold i_radial=  2 for radial functions.
  Species N                   : Default cutoff onset for free atom density etc. : 0.35000000E+01 AA.
  Species N                   : Basic radial grid will be enhanced according to radial_multiplier =   1, to contain    35 grid points.
 
  Reading configuration options for species O                   .
  | Found nuclear charge :   8.0000
  | Found atomic mass :    15.9994000000000      amu
  | Found l_max for Hartree potential  :   4
  | Found cutoff potl. onset [A], width [A], scale factor :    3.50000    1.50000    1.00000
  | Threshold for basis-dependent cutoff potential is   0.100000E-03
  | Found data for basic radial integration grid :    36 points, outermost radius =    5.000 A
  | Found multiplier for basic radial grid :   1
  | Found angular grid specification: user-specified.
  | Specified grid contains     5 separate shells.
  | Check grid settings after all constraints further below.
  | Found free-atom valence shell :  2 s   2.000
  | Found free-atom valence shell :  2 p   4.000
  | No ionic wave fns used. Skipping ion_occ.
  | No ionic wave fns used. Skipping ion_occ.
  | Found hydrogenic basis function :  2 p   1.800
  | Found hydrogenic basis function :  3 d   7.600
  | Found hydrogenic basis function :  3 s   6.400
  Species O                   : Missing cutoff potential type.
  Defaulting to exp(1/x)/(1-x)^2 type cutoff potential.
  Species O : No 'logarithmic' tag. Using default grid for free atom:
  | Default logarithmic grid data [bohr] : 0.1000E-03 0.1000E+03 0.1012E+01
  Species O : On-site basis accuracy parameter (for Gram-Schmidt orthonormalisation) not specified.
  Using default value basis_acc =  0.1000000E-03.
  Species O                   : Using default innermost maximum threshold i_radial=  2 for radial functions.
  Species O                   : Default cutoff onset for free atom density etc. : 0.35000000E+01 AA.
  Species O                   : Basic radial grid will be enhanced according to radial_multiplier =   1, to contain    36 grid points.
 
  Finished reading input file 'control.in'. Consistency checks are next.
 
  MPI_IN_PLACE appears to work with this MPI implementation.
  | Keeping use_mpi_in_place .true. (see manual).
  Target number of points in a grid batch is not set. Defaulting to  100
  Method for grid partitioning is not set. Defaulting to parallel hash+maxmin partitioning.
  Batch size limit is not set. Defaulting to    200
  By default, will store active basis functions for each batch.
  If in need of memory, prune_basis_once .false. can be used to disable this option.
  communication_type for Hartree potential was not specified.
  Defaulting to calc_hartree .
  Pulay mixer: Number of initial linear mixing iterations not set.
  Defaulting to    0 iterations.
  Work space size for distributed Hartree potential not set.
  Defaulting to   0.200000E+03 MB.
  Algorithm-dependent basis array size parameters:
  | n_max_pulay                         :       10
  Presetting      1001 iterations before the initial mixing cycle
  is restarted anyway using the sc_init_iter criterion / keyword.
  Presetting a factor      1.000 between actual scf density residual
  and density convergence criterion sc_accuracy_rho below which sc_init_iter
  takes no effect.
  Geometry relaxation not requested: no relaxation will be performed.
  Handling of forces: Unphysical translation and rotation will be removed from forces.
  No accuracy limit for integral partition fn. given. Defaulting to  0.1000E-14.
  No threshold value for u(r) in integrations given. Defaulting to  0.1000E-05.
  No accuracy for occupation numbers given. Defaulting to  0.1000E-12.
  No threshold value for occupation numbers given. Defaulting to  0.0000E+00.
  No accuracy for fermi level given. Defaulting to  0.1000E-19.
  Maximum # of iterations to find E_F not set. Defaulting to  200.
  Preferred method for the eigenvalue solver ('KS_method') not specified in 'control.in'.
  Defaulting to serial version, 'lapack_fast'.
  Will not use alltoall communication since running on < 1024 CPUs.
  Threshold for basis singularities not set.
  Default threshold for basis singularities:  0.1000E-04
  partition_type (choice of integration weights) for integrals was not specified.
  | Using a version of the partition function of Stratmann and coworkers ('stratmann_smoother').
  | At each grid point, the set of atoms used to build the partition table is smoothly restricted to
  | only those atoms whose free-atom density would be non-zero at that grid point.
  Partitioning for Hartree potential was not defined. Using partition_type for integrals.
  | Adjusted default value of keyword multip_moments_threshold to:       0.10000000E-11
  | This value may affect high angular momentum components of the Hartree potential in periodic systems.
  No q(lm)/r^(l+1) cutoff set for long-range Hartree potential.
  | Using default value of  0.100000E-09 .
  | Verify using the multipole_threshold keyword.
  Defaulting to new monopole extrapolation.
  Density update method: automatic selection selected.
------------------------------------------------------------


------------------------------------------------------------
          Reading geometry description geometry.in.
------------------------------------------------------------
  Input structure read successfully.
  The structure contains       13 atoms,  and a total of         48.000 electrons.

  Input geometry:
  | No unit cell requested.
  | Atomic structure:
  |       Atom                x [A]            y [A]            z [A]
  |    1: Species C             0.00000000        0.00000000        0.00000000
  |    2: Species H             1.09300000        0.00000000        0.00000000
  |    3: Species N            -0.47961000        0.00000000       -1.41207000
  |    4: Species H            -1.38506000       -0.46962000       -1.44997000
  |    5: Species H            -0.56974000        0.96386000       -1.72666000
  |    6: Species C            -0.49584000        1.26211000        0.72868000
  |    7: Species H            -1.58789000        1.28919000        0.74431000
  |    8: Species H            -0.13407000        1.27425000        1.75947000
  |    9: Species H            -0.13407000        2.16087000        0.22380000
  |   10: Species C            -0.39425000       -1.28861000        0.74398000
  |   11: Species O            -0.10189000       -1.56493000        1.88303000
  |   12: Species O            -1.10210000       -2.13717000        0.06896000
  |   13: Species H            -1.97783000       -1.90164000        0.41910000
  |

  | The smallest distance between any two atoms is         0.97209847 AA.
  |
  | The first atom of this pair is atom number                     12 .
  | The second atom of this pair is atom number                    13 .

  Number of empty states per atom not set in control.in - providing a guess from actual geometry.
  | Total number of empty states used during s.c.f. cycle:       29
  If you use a very high smearing, use empty_states (per atom!) in control.in to increase this value.

  Structure-dependent array size parameters: 
  | Maximum number of distinct radial functions  :       21
  | Maximum number of basis functions            :      119
  | Number of Kohn-Sham states (occupied + empty):       53
------------------------------------------------------------

------------------------------------------------------------
          Preparing all fixed parts of the calculation.
------------------------------------------------------------
  Determining machine precision:
    2.225073858507201E-308
  Setting up grids for atomic and cluster calculations.

  Creating wave function, potential, and density for free atoms.

  Species: H

  List of occupied orbitals and eigenvalues:
    n    l              occ      energy [Ha]    energy [eV]
    1    0           1.0000        -0.237589        -6.4651


  Species: C

  List of occupied orbitals and eigenvalues:
    n    l              occ      energy [Ha]    energy [eV]
    1    0           2.0000       -10.038835      -273.1706
    2    0           2.0000        -0.502696       -13.6791
    2    1           2.0000        -0.191971        -5.2238


  Species: N

  List of occupied orbitals and eigenvalues:
    n    l              occ      energy [Ha]    energy [eV]
    1    0           2.0000       -14.128000      -384.4424
    2    0           2.0000        -0.681077       -18.5330
    2    1           3.0000        -0.259788        -7.0692


  Species: O

  List of occupied orbitals and eigenvalues:
    n    l              occ      energy [Ha]    energy [eV]
    1    0           2.0000       -18.898188      -514.2459
    2    0           2.0000        -0.878505       -23.9053
    2    1           4.0000        -0.331779        -9.0282

  Creating fixed part of basis set: Ionic, confined, hydrogenic.
 
  H                    hydrogenic:
 
  List of hydrogenic basis orbitals: 
    n    l      effective z      eigenvalue [eV]  inner max. [A]     outer max. [A]     outer radius [A]   
    2    0         2.100000       -14.9728           0.193243           1.317208           4.583499
    2    1         3.500000       -41.6669           0.602369           0.602369           3.723403
 
 
  C                    hydrogenic:
 
  List of hydrogenic basis orbitals: 
    n    l      effective z      eigenvalue [eV]  inner max. [A]     outer max. [A]     outer radius [A]   
    2    1         1.700000        -9.7616           1.230570           1.230570           4.607917
    3    2         6.000000       -54.4224           0.792453           0.792453           3.883070
    2    0         4.900000       -81.6679           0.082559           0.562749           3.078220
 
 
  N                    hydrogenic:
 
  List of hydrogenic basis orbitals: 
    n    l      effective z      eigenvalue [eV]  inner max. [A]     outer max. [A]     outer radius [A]   
    2    1         1.800000       -10.9749           1.177451           1.177451           4.573712
    3    2         6.800000       -69.9026           0.704619           0.704619           3.538137
    3    0         5.800000       -50.8545           0.067388           1.191934           4.250239
 
 
  O                    hydrogenic:
 
  List of hydrogenic basis orbitals: 
    n    l      effective z      eigenvalue [eV]  inner max. [A]     outer max. [A]     outer radius [A]   
    2    1         1.800000       -10.9749           1.164242           1.164242           4.578029
    3    2         7.600000       -87.3180           0.624125           0.624125           3.251020
    3    0         6.400000       -61.9207           0.061167           1.081902           4.001998
 

  Adding cutoff potential to free-atom effective potential.
  Creating atomic-like basis functions for current effective potential.

  Species H                   :

  List of atomic basis orbitals and eigenvalues:
    n    l      energy [Ha]    energy [eV]    outer radius [A]
    1    0        -0.237589        -6.4651       4.527807


  Species C                   :

  List of atomic basis orbitals and eigenvalues:
    n    l      energy [Ha]    energy [eV]    outer radius [A]
    1    0       -10.038835      -273.1706       1.934409
    2    0        -0.502696       -13.6791       4.496620
    2    1        -0.191971        -5.2238       4.551928


  Species N                   :

  List of atomic basis orbitals and eigenvalues:
    n    l      energy [Ha]    energy [eV]    outer radius [A]
    1    0       -14.128000      -384.4424       1.637919
    2    0        -0.681077       -18.5330       4.463241
    2    1        -0.259788        -7.0692       4.518138


  Species O                   :

  List of atomic basis orbitals and eigenvalues:
    n    l      energy [Ha]    energy [eV]    outer radius [A]
    1    0       -18.898188      -514.2459       1.415765
    2    0        -0.878505       -23.9053       4.413171
    2    1        -0.331779        -9.0282       4.522403

  Assembling full basis from fixed parts.
  | Species H :   atomic orbital   1 s accepted.
  | Species H :    hydro orbital   2 s accepted.
  | Species H :    hydro orbital   2 p accepted.
  | Species C :   atomic orbital   1 s accepted.
  | Species C :    hydro orbital   2 s accepted.
  | Species C :   atomic orbital   2 s accepted.
  | Species C :   atomic orbital   2 p accepted.
  | Species C :    hydro orbital   2 p accepted.
  | Species C :    hydro orbital   3 d accepted.
  | Species N :   atomic orbital   1 s accepted.
  | Species N :    hydro orbital   3 s accepted.
  | Species N :   atomic orbital   2 s accepted.
  | Species N :   atomic orbital   2 p accepted.
  | Species N :    hydro orbital   2 p accepted.
  | Species N :    hydro orbital   3 d accepted.
  | Species O :   atomic orbital   1 s accepted.
  | Species O :    hydro orbital   3 s accepted.
  | Species O :   atomic orbital   2 s accepted.
  | Species O :   atomic orbital   2 p accepted.
  | Species O :    hydro orbital   2 p accepted.
  | Species O :    hydro orbital   3 d accepted.
 
  Basis size parameters after reduction:
  | Total number of radial functions:       21
  | Total number of basis functions :      119
 
  Per-task memory consumption for arrays in subroutine allocate_ext:
  |           5.250512MB.
  Testing on-site integration grid accuracy.
  |  Species  Function  <phi|h_atom|phi> (log., in eV)  <phi|h_atom|phi> (rad., in eV)
           1        1                 -6.4663192853                 -6.4651273558
           1        2                 13.7111246313                 13.7170609718
           1        3                 25.2673269279                 25.2674696378
           2        4               -273.1705927641               -273.1705631568
           2        5                -10.7109323383                -10.7107120029
           2        6                 17.4381822266                 17.4352413244
           2        7                 -5.2255326521                 -5.2270484734
           2        8                  8.6835629259                  8.6603288385
           2        9                 27.4952418996                 27.4953360207
           3       10               -384.4424306495               -384.4423701208
           3       11                 12.5842251816                 12.5842222903
           3       12                -15.7264628251                -15.7264433455
           3       13                 -7.0696854293                 -7.0701769954
           3       14                  8.8090390882                  8.7901077751
           3       15                 35.9586762123                 35.9588528632
           4       16               -514.2458688638               -514.2457643834
           4       17                 15.1795651126                 15.1795290741
           4       18                -21.5359799773                -21.5360846186
           4       19                 -9.0283069236                 -9.0284644067
           4       20                  8.3027758564                  8.2834874195
           4       21                 45.8339351984                 45.8338762259

  Preparing densities etc. for the partition functions (integrals / Hartree potential).

  Preparations completed.
  max(cpu_time)          :      0.146 s.
  Wall clock time (cpu1) :      0.147 s.
------------------------------------------------------------

------------------------------------------------------------
          Begin self-consistency loop: Initialization.

          Date     :  20200815, Time     :  005345.965
------------------------------------------------------------

  Initializing index lists of integration centers etc. from given atomic structure:
  | Number of centers in hartree potential         :        13
  | Number of centers in hartree multipole         :        13
  | Number of centers in electron density summation:        13
  | Number of centers in basis integrals           :        13
  | Number of centers in integrals                 :        13
  | Number of centers in hamiltonian               :        13
  Partitioning the integration grid into batches with parallel hashing+maxmin method.
  | Number of batches:      955
  | Maximal batch size:     139
  | Minimal batch size:      66
  | Average batch size:      72.928
  | Standard deviation of batch sizes:      17.626

  Integration load balanced across     1 MPI tasks.
  Work distribution over tasks is as follows:
  Task     0 has      69646 integration points.
  Initializing partition tables, free-atom densities, potentials, etc. across the integration grid (initialize_grid_storage).
  | initialize_grid_storage: Actual outermost partition radius vs. multipole_radius_free
  | (-- VB: in principle, multipole_radius_free should be larger, hence this output)
  | Species        1: Confinement radius =              4.999999999999999 AA, multipole_radius_free =              5.054417573612229 AA.
  | Species        1: outer_partition_radius set to              5.054417573612229 AA .
  | Species        2: Confinement radius =              4.999999999999999 AA, multipole_radius_free =              5.019602836301480 AA.
  | Species        2: outer_partition_radius set to              5.019602836301480 AA .
  | Species        3: Confinement radius =              4.999999999999999 AA, multipole_radius_free =              5.043624274424571 AA.
  | Species        3: outer_partition_radius set to              5.043624274424571 AA .
  | Species        4: Confinement radius =              4.999999999999999 AA, multipole_radius_free =              5.048384829883283 AA.
  | Species        4: outer_partition_radius set to              5.048384829883283 AA .
  | Original list of interatomic distances with          13 x         13 entries is created.
  | Net number of integration points:    69646
  | of which are non-zero points    :    59384
  Renormalizing the initial density to the exact electron count on the 3D integration grid.
  | Initial density: Formal number of electrons (from input files) :      48.0000000000
  | Integrated number of electrons on 3D grid     :      47.9998418962
  | Charge integration error                      :      -0.0001581038
  | Normalization factor for density and gradient :       1.0000032938
  Obtaining max. number of non-zero basis functions in each batch (get_n_compute_maxes).
  | Maximal number of non-zero basis functions:      119 in task     0
  Selecting the method for density update.
  Loop over occupied states selected for charge density update.
  Allocating        0.050 MB for KS_eigenvector
  Integrating Hamiltonian matrix: batch-based integration.
  Time summed over all CPUs for integration: real work        0.495 s, elapsed        0.495 s
  Integrating overlap matrix.
  Time summed over all CPUs for integration: real work        0.211 s, elapsed        0.211 s

  Updating Kohn-Sham eigenvalues and eigenvectors using ELSI and the ELPA eigensolver.
  Overlap matrix is nonsingular
  | Lowest eigenvalue of overlap  :  0.51E-02
  | Highest eigenvalue of overlap :  0.63E+01
  Finished singularity check of overlap matrix
  | Time :     0.002 s
  Finished Cholesky decomposition
  | Time :     0.000 s
  Finished transformation to standard eigenproblem
  | Time :     0.000 s
  Starting LAPACK eigensolver
  Finished solving standard eigenproblem
  | Time :     0.002 s
  Finished back-transformation of eigenvectors
  | Time :     0.000 s

  Obtaining occupation numbers and chemical potential using ELSI.
  | Chemical potential (Fermi level):    -9.29731656eV
  Writing Kohn-Sham eigenvalues.

  State    Occupation    Eigenvalue [Ha]    Eigenvalue [eV]
      1       2.00000         -19.007993         -517.23381
      2       2.00000         -18.977383         -516.40088
      3       2.00000         -14.245814         -387.64833
      4       2.00000         -10.166851         -276.65409
      5       2.00000         -10.141300         -275.95881
      6       2.00000         -10.132058         -275.70732
      7       2.00000          -1.184358          -32.22803
      8       2.00000          -1.096809          -29.84568
      9       2.00000          -0.991957          -26.99253
     10       2.00000          -0.858506          -23.36113
     11       2.00000          -0.759585          -20.66935
     12       2.00000          -0.679174          -18.48127
     13       2.00000          -0.634673          -17.27033
     14       2.00000          -0.600246          -16.33353
     15       2.00000          -0.585706          -15.93786
     16       2.00000          -0.562100          -15.29551
     17       2.00000          -0.550877          -14.99012
     18       2.00000          -0.542272          -14.75597
     19       2.00000          -0.525419          -14.29737
     20       2.00000          -0.497118          -13.52726
     21       2.00000          -0.458869          -12.48645
     22       2.00000          -0.426985          -11.61886
     23       2.00000          -0.399523          -10.87157
     24       2.00000          -0.390108          -10.61539
     25       0.00000          -0.163360           -4.44526
     26       0.00000          -0.066292           -1.80390
     27       0.00000          -0.031127           -0.84701
     28       0.00000          -0.024563           -0.66840
     29       0.00000           0.001317            0.03584
     30       0.00000           0.010142            0.27598
     31       0.00000           0.028665            0.78002
     32       0.00000           0.037939            1.03238
     33       0.00000           0.039907            1.08592
     34       0.00000           0.063370            1.72438
     35       0.00000           0.081228            2.21034
     36       0.00000           0.133150            3.62318
     37       0.00000           0.154653            4.20831
     38       0.00000           0.203766            5.54477
     39       0.00000           0.214519            5.83736
     40       0.00000           0.230275            6.26610
     41       0.00000           0.257502            7.00699
     42       0.00000           0.275645            7.50069
     43       0.00000           0.294132            8.00375
     44       0.00000           0.302773            8.23886
     45       0.00000           0.321253            8.74173
     46       0.00000           0.342968            9.33264
     47       0.00000           0.372290           10.13053
     48       0.00000           0.381399           10.37840
     49       0.00000           0.463232           12.60518
     50       0.00000           0.478377           13.01730
     51       0.00000           0.511575           13.92066
     52       0.00000           0.531311           14.45770
     53       0.00000           0.576346           15.68317

  Highest occupied state (VBM) at    -10.61538641 eV
  | Occupation number:      2.00000000

  Lowest unoccupied state (CBM) at    -4.44526269 eV
  | Occupation number:      0.00000000

  Overall HOMO-LUMO gap:      6.17012372 eV.
  Calculating total energy contributions from superposition of free atom densities.

  Total energy components:
  | Sum of eigenvalues            :        -188.83136543 Ha       -5138.36289046 eV
  | XC energy correction          :         -41.78951859 Ha       -1137.15065848 eV
  | XC potential correction       :          53.72127221 Ha        1461.83019383 eV
  | Free-atom electrostatic energy:        -146.85554586 Ha       -3996.14272439 eV
  | Hartree energy correction     :           0.00000000 Ha           0.00000000 eV
  | vdW energy correction         :           0.00000000 Ha           0.00000000 eV
  | Entropy correction            :           0.00000000 Ha           0.00000000 eV
  | ---------------------------
  | Total energy                  :        -323.75515768 Ha       -8809.82607949 eV
  | Total energy, T -> 0          :        -323.75515768 Ha       -8809.82607949 eV  <-- do not rely on this value for anything but (periodic) metals
  | Electronic free energy        :        -323.75515768 Ha       -8809.82607949 eV

  Derived energy quantities:
  | Kinetic energy                :         320.50211930 Ha        8721.30640132 eV
  | Electrostatic energy          :        -602.46775839 Ha      -16393.98182233 eV
  | Energy correction for multipole
  | error in Hartree potential    :           0.00000000 Ha           0.00000000 eV
  | Sum of eigenvalues per atom                           :        -395.25868388 eV
  | Total energy (T->0) per atom                          :        -677.67892919 eV  <-- do not rely on this value for anything but (periodic) metals
  | Electronic free energy per atom                       :        -677.67892919 eV
  Initialize hartree_potential_storage
  Max. number of atoms included in rho_multipole:           13

  End scf initialization - timings             :  max(cpu_time)    wall_clock(cpu1)
  | Time for scf. initialization               :        1.148 s           1.151 s
  | Boundary condition initialization          :        0.000 s           0.001 s
  | Integration                                :        0.706 s           0.707 s
  | Solution of K.-S. eqns.                    :        0.004 s           0.004 s
  | Grid partitioning                          :        0.111 s           0.111 s
  | Preloading free-atom quantities on grid    :        0.002 s           0.002 s
  | Free-atom superposition energy             :        0.084 s           0.085 s
  | Total energy evaluation                    :        0.000 s           0.000 s

  Partial memory accounting:
  | Current value for overall tracked memory usage on task 0  :           0.165 MB
  | Peak value for overall tracked memory usage on task 0     :           0.678 MB after allocating wave
  | Largest tracked array allocation on task 0 so far         :           0.132 MB  when allocating H_times_psi
  Note:  These values currently only include a subset of arrays which are explicitly tracked.
  The "true" memory usage will be greater.
------------------------------------------------------------

------------------------------------------------------------
          Begin self-consistency iteration #    1

  Date     :  20200815, Time     :  005347.116
------------------------------------------------------------
  Evaluating new KS density.
  Integration grid: deviation in total charge (<rho> - N_e) =  -2.131628E-14
  Pulay mixing of updated and previous charge densities.

  Evaluating partitioned Hartree potential by multipole expansion.
  | Analytical far-field extrapolation by fixed multipoles:
  | Hartree multipole sum: apparent total charge =  -0.264684E-03
  Summing up the Hartree potential.
  Time summed over all CPUs for potential: real work        0.282 s, elapsed        0.282 s
  | RMS charge density error from multipole expansion :   0.593443E-02

  Integrating Hamiltonian matrix: batch-based integration.
  Time summed over all CPUs for integration: real work        0.493 s, elapsed        0.493 s

  Updating Kohn-Sham eigenvalues and eigenvectors using ELSI and the ELPA eigensolver.
  Finished Cholesky decomposition
  | Time :     0.000 s
  Finished transformation to standard eigenproblem
  | Time :     0.000 s
  Starting LAPACK eigensolver
  Finished solving standard eigenproblem
  | Time :     0.002 s
  Finished back-transformation of eigenvectors
  | Time :     0.000 s

  Obtaining occupation numbers and chemical potential using ELSI.
  | Chemical potential (Fermi level):    -8.09571514eV
  Writing Kohn-Sham eigenvalues.

  State    Occupation    Eigenvalue [Ha]    Eigenvalue [eV]
      1       2.00000         -18.897851         -514.23670
      2       2.00000         -18.840997         -512.68962
      3       2.00000         -14.095146         -383.54844
      4       2.00000         -10.119343         -275.36133
      5       2.00000         -10.062673         -273.81927
      6       2.00000         -10.034004         -273.03915
      7       2.00000          -1.135016          -30.88536
      8       2.00000          -1.035115          -28.16692
      9       2.00000          -0.921853          -25.08491
     10       2.00000          -0.793672          -21.59692
     11       2.00000          -0.709189          -19.29802
     12       2.00000          -0.633281          -17.23245
     13       2.00000          -0.582239          -15.84353
     14       2.00000          -0.540784          -14.71549
     15       2.00000          -0.528559          -14.38282
     16       2.00000          -0.500357          -13.61542
     17       2.00000          -0.491301          -13.36897
     18       2.00000          -0.479346          -13.04367
     19       2.00000          -0.466522          -12.69471
     20       2.00000          -0.440260          -11.98008
     21       2.00000          -0.399034          -10.85827
     22       2.00000          -0.372128          -10.12611
     23       2.00000          -0.328853           -8.94853
     24       2.00000          -0.314581           -8.56017
     25       0.00000          -0.129366           -3.52022
     26       0.00000          -0.047304           -1.28720
     27       0.00000          -0.002961           -0.08057
     28       0.00000           0.015278            0.41574
     29       0.00000           0.030382            0.82673
     30       0.00000           0.046115            1.25485
     31       0.00000           0.067698            1.84216
     32       0.00000           0.070510            1.91868
     33       0.00000           0.078807            2.14445
     34       0.00000           0.103549            2.81772
     35       0.00000           0.122303            3.32803
     36       0.00000           0.160398            4.36466
     37       0.00000           0.178401            4.85453
     38       0.00000           0.231229            6.29205
     39       0.00000           0.248778            6.76959
     40       0.00000           0.265979            7.23767
     41       0.00000           0.288965            7.86314
     42       0.00000           0.309528            8.42268
     43       0.00000           0.328765            8.94615
     44       0.00000           0.342663            9.32433
     45       0.00000           0.361217            9.82921
     46       0.00000           0.376874           10.25527
     47       0.00000           0.415059           11.29433
     48       0.00000           0.419473           11.41444
     49       0.00000           0.495792           13.49118
     50       0.00000           0.514010           13.98693
     51       0.00000           0.546157           14.86169
     52       0.00000           0.565258           15.38144
     53       0.00000           0.617259           16.79646

  Highest occupied state (VBM) at     -8.56017280 eV
  | Occupation number:      2.00000000

  Lowest unoccupied state (CBM) at    -3.52021746 eV
  | Occupation number:      0.00000000

  Overall HOMO-LUMO gap:      5.03995534 eV.

  Total energy components:
  | Sum of eigenvalues            :        -185.44420877 Ha       -5046.19366814 eV
  | XC energy correction          :         -42.11901122 Ha       -1146.11660900 eV
  | XC potential correction       :          54.14979804 Ha        1473.49097498 eV
  | Free-atom electrostatic energy:        -146.85554586 Ha       -3996.14272439 eV
  | Hartree energy correction     :          -3.30056597 Ha         -89.81296956 eV
  | vdW energy correction         :           0.00000000 Ha           0.00000000 eV
  | Entropy correction            :           0.00000000 Ha           0.00000000 eV
  | ---------------------------
  | Total energy                  :        -323.56953378 Ha       -8804.77499611 eV
  | Total energy, T -> 0          :        -323.56953378 Ha       -8804.77499611 eV  <-- do not rely on this value for anything but (periodic) metals
  | Electronic free energy        :        -323.56953378 Ha       -8804.77499611 eV

  Derived energy quantities:
  | Kinetic energy                :         322.30397060 Ha        8770.33726985 eV
  | Electrostatic energy          :        -603.75449316 Ha      -16428.99565696 eV
  | Energy correction for multipole
  | error in Hartree potential    :           0.01200909 Ha           0.32678401 eV
  | Sum of eigenvalues per atom                           :        -388.16874370 eV
  | Total energy (T->0) per atom                          :        -677.29038432 eV  <-- do not rely on this value for anything but (periodic) metals
  | Electronic free energy per atom                       :        -677.29038432 eV

  Self-consistency convergence accuracy:
  | Change of charge density      :  0.5898E+00
  | Change of sum of eigenvalues  :  0.9217E+02 eV
  | Change of total energy        :  0.5051E+01 eV

  End self-consistency iteration #     1       :  max(cpu_time)    wall_clock(cpu1)
  | Time for this iteration                    :        1.186 s           1.187 s
  | Charge density update                      :        0.394 s           0.394 s
  | Density mixing                             :        0.005 s           0.006 s
  | Hartree multipole update                   :        0.009 s           0.009 s
  | Hartree multipole summation                :        0.283 s           0.283 s
  | Integration                                :        0.493 s           0.493 s
  | Solution of K.-S. eqns.                    :        0.002 s           0.002 s
  | Total energy evaluation                    :        0.000 s           0.000 s

  Partial memory accounting:
  | Current value for overall tracked memory usage on task 0  :           0.165 MB
  | Peak value for overall tracked memory usage on task 0     :           0.695 MB after allocating gradient_basis_wave
  | Largest tracked array allocation on task 0 so far         :           0.397 MB  when allocating gradient_basis_wave
  Note:  These values currently only include a subset of arrays which are explicitly tracked.
  The "true" memory usage will be greater.
------------------------------------------------------------

------------------------------------------------------------
          Begin self-consistency iteration #    2

  Date     :  20200815, Time     :  005348.304
------------------------------------------------------------
  Evaluating new KS density.
  Integration grid: deviation in total charge (<rho> - N_e) =  -1.421085E-14
  Pulay mixing of updated and previous charge densities.

  Evaluating partitioned Hartree potential by multipole expansion.
  | Analytical far-field extrapolation by fixed multipoles:
  | Hartree multipole sum: apparent total charge =  -0.398401E-03
  Summing up the Hartree potential.
  Time summed over all CPUs for potential: real work        0.281 s, elapsed        0.281 s
  | RMS charge density error from multipole expansion :   0.140240E-01

  Integrating Hamiltonian matrix: batch-based integration.
  Time summed over all CPUs for integration: real work        0.494 s, elapsed        0.494 s

  Updating Kohn-Sham eigenvalues and eigenvectors using ELSI and the ELPA eigensolver.
  Finished Cholesky decomposition
  | Time :     0.000 s
  Finished transformation to standard eigenproblem
  | Time :     0.000 s
  Starting LAPACK eigensolver
  Finished solving standard eigenproblem
  | Time :     0.002 s
  Finished back-transformation of eigenvectors
  | Time :     0.000 s

  Obtaining occupation numbers and chemical potential using ELSI.
  | Chemical potential (Fermi level):    -2.58091132eV
  Highest occupied state (VBM) at     -6.47406355 eV
  | Occupation number:      2.00000000

  Lowest unoccupied state (CBM) at    -2.35075641 eV
  | Occupation number:      0.00000000

  Overall HOMO-LUMO gap:      4.12330713 eV.

  Checking to see if s.c.f. parameters should be adjusted.

  Total energy components:
  | Sum of eigenvalues            :        -181.91220468 Ha       -4950.08294689 eV
  | XC energy correction          :         -42.47668521 Ha       -1155.84941357 eV
  | XC potential correction       :          54.61340565 Ha        1486.10637989 eV
  | Free-atom electrostatic energy:        -146.85554586 Ha       -3996.14272439 eV
  | Hartree energy correction     :          -6.85849510 Ha        -186.62914718 eV
  | vdW energy correction         :           0.00000000 Ha           0.00000000 eV
  | Entropy correction            :          -0.00000000 Ha          -0.00000000 eV
  | ---------------------------
  | Total energy                  :        -323.48952521 Ha       -8802.59785215 eV
  | Total energy, T -> 0          :        -323.48952521 Ha       -8802.59785215 eV  <-- do not rely on this value for anything but (periodic) metals
  | Electronic free energy        :        -323.48952521 Ha       -8802.59785215 eV

  Derived energy quantities:
  | Kinetic energy                :         323.61444059 Ha        8805.99697252 eV
  | Electrostatic energy          :        -604.62728058 Ha      -16452.74541109 eV
  | Energy correction for multipole
  | error in Hartree potential    :           0.02635937 Ha           0.71727505 eV
  | Sum of eigenvalues per atom                           :        -380.77561130 eV
  | Total energy (T->0) per atom                          :        -677.12291170 eV  <-- do not rely on this value for anything but (periodic) metals
  | Electronic free energy per atom                       :        -677.12291170 eV

  Self-consistency convergence accuracy:
  | Change of charge density      :  0.3687E+00
  | Change of sum of eigenvalues  :  0.9611E+02 eV
  | Change of total energy        :  0.2177E+01 eV

  End self-consistency iteration #     2       :  max(cpu_time)    wall_clock(cpu1)
  | Time for this iteration                    :        1.179 s           1.187 s
  | Charge density update                      :        0.385 s           0.393 s
  | Density mixing                             :        0.007 s           0.006 s
  | Hartree multipole update                   :        0.009 s           0.009 s
  | Hartree multipole summation                :        0.282 s           0.282 s
  | Integration                                :        0.493 s           0.494 s
  | Solution of K.-S. eqns.                    :        0.002 s           0.002 s
  | Total energy evaluation                    :        0.000 s           0.001 s

  Partial memory accounting:
  | Current value for overall tracked memory usage on task 0  :           0.166 MB
  | Peak value for overall tracked memory usage on task 0     :           0.695 MB after allocating gradient_basis_wave
  | Largest tracked array allocation on task 0 so far         :           0.397 MB  when allocating gradient_basis_wave
  Note:  These values currently only include a subset of arrays which are explicitly tracked.
  The "true" memory usage will be greater.
------------------------------------------------------------

------------------------------------------------------------
          Begin self-consistency iteration #    3

  Date     :  20200815, Time     :  005349.491
------------------------------------------------------------
  Evaluating new KS density.
  Integration grid: deviation in total charge (<rho> - N_e) =   7.105427E-15
  Pulay mixing of updated and previous charge densities.

  Evaluating partitioned Hartree potential by multipole expansion.
  | Analytical far-field extrapolation by fixed multipoles:
  | Hartree multipole sum: apparent total charge =  -0.488582E-03
  Summing up the Hartree potential.
  Time summed over all CPUs for potential: real work        0.282 s, elapsed        0.282 s
  | RMS charge density error from multipole expansion :   0.219662E-01

  Integrating Hamiltonian matrix: batch-based integration.
  Time summed over all CPUs for integration: real work        0.493 s, elapsed        0.493 s

  Updating Kohn-Sham eigenvalues and eigenvectors using ELSI and the ELPA eigensolver.
  Finished Cholesky decomposition
  | Time :     0.000 s
  Finished transformation to standard eigenproblem
  | Time :     0.000 s
  Starting LAPACK eigensolver
  Finished solving standard eigenproblem
  | Time :     0.002 s
  Finished back-transformation of eigenvectors
  | Time :     0.000 s

  Obtaining occupation numbers and chemical potential using ELSI.
  | Chemical potential (Fermi level):    -2.04620403eV
  Highest occupied state (VBM) at     -5.77965883 eV
  | Occupation number:      2.00000000

  Lowest unoccupied state (CBM) at    -1.70586028 eV
  | Occupation number:      0.00000000

  Overall HOMO-LUMO gap:      4.07379855 eV.

  Total energy components:
  | Sum of eigenvalues            :        -180.64102905 Ha       -4915.49249809 eV
  | XC energy correction          :         -42.62622085 Ha       -1159.91848532 eV
  | XC potential correction       :          54.80404999 Ha        1491.29407645 eV
  | Free-atom electrostatic energy:        -146.85554586 Ha       -3996.14272439 eV
  | Hartree energy correction     :          -8.15757654 Ha        -221.97895170 eV
  | vdW energy correction         :           0.00000000 Ha           0.00000000 eV
  | Entropy correction            :           0.00000000 Ha           0.00000000 eV
  | ---------------------------
  | Total energy                  :        -323.47632231 Ha       -8802.23858305 eV
  | Total energy, T -> 0          :        -323.47632231 Ha       -8802.23858305 eV  <-- do not rely on this value for anything but (periodic) metals
  | Electronic free energy        :        -323.47632231 Ha       -8802.23858305 eV

  Derived energy quantities:
  | Kinetic energy                :         323.20821186 Ha        8794.94292635 eV
  | Electrostatic energy          :        -604.05831332 Ha      -16437.26302408 eV
  | Energy correction for multipole
  | error in Hartree potential    :           0.03718706 Ha           1.01191150 eV
  | Sum of eigenvalues per atom                           :        -378.11480755 eV
  | Total energy (T->0) per atom                          :        -677.09527562 eV  <-- do not rely on this value for anything but (periodic) metals
  | Electronic free energy per atom                       :        -677.09527562 eV

  Self-consistency convergence accuracy:
  | Change of charge density      :  0.2071E+00
  | Change of sum of eigenvalues  :  0.3459E+02 eV
  | Change of total energy        :  0.3593E+00 eV

  End self-consistency iteration #     3       :  max(cpu_time)    wall_clock(cpu1)
  | Time for this iteration                    :        1.180 s           1.184 s
  | Charge density update                      :        0.386 s           0.388 s
  | Density mixing                             :        0.008 s           0.009 s
  | Hartree multipole update                   :        0.009 s           0.009 s
  | Hartree multipole summation                :        0.282 s           0.282 s
  | Integration                                :        0.493 s           0.494 s
  | Solution of K.-S. eqns.                    :        0.002 s           0.002 s
  | Total energy evaluation                    :        0.000 s           0.000 s

  Partial memory accounting:
  | Current value for overall tracked memory usage on task 0  :           0.166 MB
  | Peak value for overall tracked memory usage on task 0     :           0.695 MB after allocating gradient_basis_wave
  | Largest tracked array allocation on task 0 so far         :           0.397 MB  when allocating gradient_basis_wave
  Note:  These values currently only include a subset of arrays which are explicitly tracked.
  The "true" memory usage will be greater.
------------------------------------------------------------

------------------------------------------------------------
          Begin self-consistency iteration #    4

  Date     :  20200815, Time     :  005350.676
------------------------------------------------------------
  Evaluating new KS density.
  Integration grid: deviation in total charge (<rho> - N_e) =   0.000000E+00
  Pulay mixing of updated and previous charge densities.

  Evaluating partitioned Hartree potential by multipole expansion.
  | Analytical far-field extrapolation by fixed multipoles:
  | Hartree multipole sum: apparent total charge =  -0.519043E-03
  Summing up the Hartree potential.
  Time summed over all CPUs for potential: real work        0.282 s, elapsed        0.282 s
  | RMS charge density error from multipole expansion :   0.254537E-01

  Integrating Hamiltonian matrix: batch-based integration.
  Time summed over all CPUs for integration: real work        0.493 s, elapsed        0.493 s

  Updating Kohn-Sham eigenvalues and eigenvectors using ELSI and the ELPA eigensolver.
  Finished Cholesky decomposition
  | Time :     0.000 s
  Finished transformation to standard eigenproblem
  | Time :     0.000 s
  Starting LAPACK eigensolver
  Finished solving standard eigenproblem
  | Time :     0.002 s
  Finished back-transformation of eigenvectors
  | Time :     0.000 s

  Obtaining occupation numbers and chemical potential using ELSI.
  | Chemical potential (Fermi level):    -1.94582204eV
  Highest occupied state (VBM) at     -5.63077948 eV
  | Occupation number:      2.00000000

  Lowest unoccupied state (CBM) at    -1.60771673 eV
  | Occupation number:      0.00000000

  Overall HOMO-LUMO gap:      4.02306275 eV.

  Total energy components:
  | Sum of eigenvalues            :        -180.48902767 Ha       -4911.35632987 eV
  | XC energy correction          :         -42.66571363 Ha       -1160.99313846 eV
  | XC potential correction       :          54.85375627 Ha        1492.64665305 eV
  | Free-atom electrostatic energy:        -146.85554586 Ha       -3996.14272439 eV
  | Hartree energy correction     :          -8.31876354 Ha        -226.36507326 eV
  | vdW energy correction         :           0.00000000 Ha           0.00000000 eV
  | Entropy correction            :           0.00000000 Ha           0.00000000 eV
  | ---------------------------
  | Total energy                  :        -323.47529443 Ha       -8802.21061292 eV
  | Total energy, T -> 0          :        -323.47529443 Ha       -8802.21061292 eV  <-- do not rely on this value for anything but (periodic) metals
  | Electronic free energy        :        -323.47529443 Ha       -8802.21061292 eV

  Derived energy quantities:
  | Kinetic energy                :         322.82383423 Ha        8784.48347906 eV
  | Electrostatic energy          :        -603.63341503 Ha      -16425.70095353 eV
  | Energy correction for multipole
  | error in Hartree potential    :           0.04148270 Ha           1.12880177 eV
  | Sum of eigenvalues per atom                           :        -377.79664076 eV
  | Total energy (T->0) per atom                          :        -677.09312407 eV  <-- do not rely on this value for anything but (periodic) metals
  | Electronic free energy per atom                       :        -677.09312407 eV

  Self-consistency convergence accuracy:
  | Change of charge density      :  0.6775E-01
  | Change of sum of eigenvalues  :  0.4136E+01 eV
  | Change of total energy        :  0.2797E-01 eV

  End self-consistency iteration #     4       :  max(cpu_time)    wall_clock(cpu1)
  | Time for this iteration                    :        1.181 s           1.181 s
  | Charge density update                      :        0.386 s           0.386 s
  | Density mixing                             :        0.009 s           0.009 s
  | Hartree multipole update                   :        0.009 s           0.009 s
  | Hartree multipole summation                :        0.282 s           0.282 s
  | Integration                                :        0.493 s           0.493 s
  | Solution of K.-S. eqns.                    :        0.002 s           0.002 s
  | Total energy evaluation                    :        0.000 s           0.000 s

  Partial memory accounting:
  | Current value for overall tracked memory usage on task 0  :           0.166 MB
  | Peak value for overall tracked memory usage on task 0     :           0.696 MB after allocating gradient_basis_wave
  | Largest tracked array allocation on task 0 so far         :           0.397 MB  when allocating gradient_basis_wave
  Note:  These values currently only include a subset of arrays which are explicitly tracked.
  The "true" memory usage will be greater.
------------------------------------------------------------

------------------------------------------------------------
          Begin self-consistency iteration #    5

  Date     :  20200815, Time     :  005351.858
------------------------------------------------------------
  Evaluating new KS density.
  Integration grid: deviation in total charge (<rho> - N_e) =   0.000000E+00
  Pulay mixing of updated and previous charge densities.

  Evaluating partitioned Hartree potential by multipole expansion.
  | Analytical far-field extrapolation by fixed multipoles:
  | Hartree multipole sum: apparent total charge =  -0.512777E-03
  Summing up the Hartree potential.
  Time summed over all CPUs for potential: real work        0.282 s, elapsed        0.282 s
  | RMS charge density error from multipole expansion :   0.252439E-01

  Integrating Hamiltonian matrix: batch-based integration.
  Time summed over all CPUs for integration: real work        0.493 s, elapsed        0.493 s

  Updating Kohn-Sham eigenvalues and eigenvectors using ELSI and the ELPA eigensolver.
  Finished Cholesky decomposition
  | Time :     0.000 s
  Finished transformation to standard eigenproblem
  | Time :     0.000 s
  Starting LAPACK eigensolver
  Finished solving standard eigenproblem
  | Time :     0.002 s
  Finished back-transformation of eigenvectors
  | Time :     0.000 s

  Obtaining occupation numbers and chemical potential using ELSI.
  | Chemical potential (Fermi level):    -2.00176045eV
  Highest occupied state (VBM) at     -5.70933141 eV
  | Occupation number:      2.00000000

  Lowest unoccupied state (CBM) at    -1.70647111 eV
  | Occupation number:      0.00000000

  Overall HOMO-LUMO gap:      4.00286030 eV.

  Total energy components:
  | Sum of eigenvalues            :        -180.70450253 Ha       -4917.21969911 eV
  | XC energy correction          :         -42.63978450 Ha       -1160.28757104 eV
  | XC potential correction       :          54.82010258 Ha        1491.73088966 eV
  | Free-atom electrostatic energy:        -146.85554586 Ha       -3996.14272439 eV
  | Hartree energy correction     :          -8.09528197 Ha        -220.28383030 eV
  | vdW energy correction         :           0.00000000 Ha           0.00000000 eV
  | Entropy correction            :           0.00000000 Ha           0.00000000 eV
  | ---------------------------
  | Total energy                  :        -323.47501228 Ha       -8802.20293517 eV
  | Total energy, T -> 0          :        -323.47501228 Ha       -8802.20293517 eV  <-- do not rely on this value for anything but (periodic) metals
  | Electronic free energy        :        -323.47501228 Ha       -8802.20293517 eV

  Derived energy quantities:
  | Kinetic energy                :         322.69354143 Ha        8780.93803149 eV
  | Electrostatic energy          :        -603.52876920 Ha      -16422.85339562 eV
  | Energy correction for multipole
  | error in Hartree potential    :           0.04087131 Ha           1.11216498 eV
  | Sum of eigenvalues per atom                           :        -378.24766916 eV
  | Total energy (T->0) per atom                          :        -677.09253347 eV  <-- do not rely on this value for anything but (periodic) metals
  | Electronic free energy per atom                       :        -677.09253347 eV

  Self-consistency convergence accuracy:
  | Change of charge density      :  0.2016E-01
  | Change of sum of eigenvalues  : -0.5863E+01 eV
  | Change of total energy        :  0.7678E-02 eV

  End self-consistency iteration #     5       :  max(cpu_time)    wall_clock(cpu1)
  | Time for this iteration                    :        1.182 s           1.183 s
  | Charge density update                      :        0.385 s           0.385 s
  | Density mixing                             :        0.011 s           0.011 s
  | Hartree multipole update                   :        0.009 s           0.009 s
  | Hartree multipole summation                :        0.282 s           0.282 s
  | Integration                                :        0.493 s           0.494 s
  | Solution of K.-S. eqns.                    :        0.002 s           0.002 s
  | Total energy evaluation                    :        0.000 s           0.000 s

  Partial memory accounting:
  | Current value for overall tracked memory usage on task 0  :           0.166 MB
  | Peak value for overall tracked memory usage on task 0     :           0.696 MB after allocating gradient_basis_wave
  | Largest tracked array allocation on task 0 so far         :           0.397 MB  when allocating gradient_basis_wave
  Note:  These values currently only include a subset of arrays which are explicitly tracked.
  The "true" memory usage will be greater.
------------------------------------------------------------

------------------------------------------------------------
          Begin self-consistency iteration #    6

  Date     :  20200815, Time     :  005353.042
------------------------------------------------------------
  Evaluating new KS density.
  Integration grid: deviation in total charge (<rho> - N_e) =  -2.131628E-14
  Pulay mixing of updated and previous charge densities.

  Evaluating partitioned Hartree potential by multipole expansion.
  | Analytical far-field extrapolation by fixed multipoles:
  | Hartree multipole sum: apparent total charge =  -0.516996E-03
  Summing up the Hartree potential.
  Time summed over all CPUs for potential: real work        0.282 s, elapsed        0.282 s
  | RMS charge density error from multipole expansion :   0.257259E-01

  Integrating Hamiltonian matrix: batch-based integration.
  Time summed over all CPUs for integration: real work        0.493 s, elapsed        0.493 s

  Updating Kohn-Sham eigenvalues and eigenvectors using ELSI and the ELPA eigensolver.
  Finished Cholesky decomposition
  | Time :     0.000 s
  Finished transformation to standard eigenproblem
  | Time :     0.000 s
  Starting LAPACK eigensolver
  Finished solving standard eigenproblem
  | Time :     0.001 s
  Finished back-transformation of eigenvectors
  | Time :     0.000 s

  Obtaining occupation numbers and chemical potential using ELSI.
  | Chemical potential (Fermi level):    -1.98145974eV
  Highest occupied state (VBM) at     -5.66043490 eV
  | Occupation number:      2.00000000

  Lowest unoccupied state (CBM) at    -1.70720248 eV
  | Occupation number:      0.00000000

  Overall HOMO-LUMO gap:      3.95323241 eV.

  Total energy components:
  | Sum of eigenvalues            :        -180.67313053 Ha       -4916.36602375 eV
  | XC energy correction          :         -42.64304044 Ha       -1160.37616962 eV
  | XC potential correction       :          54.82429953 Ha        1491.84509434 eV
  | Free-atom electrostatic energy:        -146.85554586 Ha       -3996.14272439 eV
  | Hartree energy correction     :          -8.12756038 Ha        -221.16217052 eV
  | vdW energy correction         :           0.00000000 Ha           0.00000000 eV
  | Entropy correction            :           0.00000000 Ha           0.00000000 eV
  | ---------------------------
  | Total energy                  :        -323.47497769 Ha       -8802.20199394 eV
  | Total energy, T -> 0          :        -323.47497769 Ha       -8802.20199394 eV  <-- do not rely on this value for anything but (periodic) metals
  | Electronic free energy        :        -323.47497769 Ha       -8802.20199394 eV

  Derived energy quantities:
  | Kinetic energy                :         322.63238089 Ha        8779.27376864 eV
  | Electrostatic energy          :        -603.46431814 Ha      -16421.09959295 eV
  | Energy correction for multipole
  | error in Hartree potential    :           0.04137397 Ha           1.12584291 eV
  | Sum of eigenvalues per atom                           :        -378.18200183 eV
  | Total energy (T->0) per atom                          :        -677.09246107 eV  <-- do not rely on this value for anything but (periodic) metals
  | Electronic free energy per atom                       :        -677.09246107 eV

  Self-consistency convergence accuracy:
  | Change of charge density      :  0.1053E-01
  | Change of sum of eigenvalues  :  0.8537E+00 eV
  | Change of total energy        :  0.9412E-03 eV

  End self-consistency iteration #     6       :  max(cpu_time)    wall_clock(cpu1)
  | Time for this iteration                    :        1.183 s           1.184 s
  | Charge density update                      :        0.386 s           0.385 s
  | Density mixing                             :        0.012 s           0.012 s
  | Hartree multipole update                   :        0.009 s           0.009 s
  | Hartree multipole summation                :        0.282 s           0.282 s
  | Integration                                :        0.493 s           0.493 s
  | Solution of K.-S. eqns.                    :        0.002 s           0.002 s
  | Total energy evaluation                    :        0.000 s           0.000 s

  Partial memory accounting:
  | Current value for overall tracked memory usage on task 0  :           0.166 MB
  | Peak value for overall tracked memory usage on task 0     :           0.696 MB after allocating gradient_basis_wave
  | Largest tracked array allocation on task 0 so far         :           0.397 MB  when allocating gradient_basis_wave
  Note:  These values currently only include a subset of arrays which are explicitly tracked.
  The "true" memory usage will be greater.
------------------------------------------------------------

------------------------------------------------------------
          Begin self-consistency iteration #    7

  Date     :  20200815, Time     :  005354.226
------------------------------------------------------------
  Evaluating new KS density.
  Integration grid: deviation in total charge (<rho> - N_e) =  -1.421085E-14
  Pulay mixing of updated and previous charge densities.

  Evaluating partitioned Hartree potential by multipole expansion.
  | Analytical far-field extrapolation by fixed multipoles:
  | Hartree multipole sum: apparent total charge =  -0.517156E-03
  Summing up the Hartree potential.
  Time summed over all CPUs for potential: real work        0.282 s, elapsed        0.282 s
  | RMS charge density error from multipole expansion :   0.258078E-01

  Integrating Hamiltonian matrix: batch-based integration.
  Time summed over all CPUs for integration: real work        0.493 s, elapsed        0.493 s

  Updating Kohn-Sham eigenvalues and eigenvectors using ELSI and the ELPA eigensolver.
  Finished Cholesky decomposition
  | Time :     0.000 s
  Finished transformation to standard eigenproblem
  | Time :     0.000 s
  Starting LAPACK eigensolver
  Finished solving standard eigenproblem
  | Time :     0.002 s
  Finished back-transformation of eigenvectors
  | Time :     0.000 s

[...]
  |   Hirshfeld dipole moment :      0.05633898
  |   Hirshfeld second moments:      0.02099749      -0.02968980      -0.01823921
  |                                 -0.02968980      -0.01988438       0.00686963
  |                                 -0.01823921       0.00686963      -0.01540077
  ----------------------------------------------------------------------
  | Atom    12: O
  |   Hirshfeld charge        :     -0.15622176
  |   Free atom volume        :     23.61338643
  |   Hirshfeld volume        :     20.78085764
  |   Hirshfeld dipole vector :      0.00342025       0.03643910       0.01660224
  |   Hirshfeld dipole moment :      0.04018881
  |   Hirshfeld second moments:      0.11449441       0.00226232      -0.00998992
  |                                  0.00226232       0.03674938       0.00550410
  |                                 -0.00998992       0.00550410       0.03194922
  ----------------------------------------------------------------------
  | Atom    13: H
  |   Hirshfeld charge        :      0.18820471
  |   Free atom volume        :      9.95071624
  |   Hirshfeld volume        :      5.97596853
  |   Hirshfeld dipole vector :     -0.12165770       0.02752077       0.03422090
  |   Hirshfeld dipole moment :      0.12934086
  |   Hirshfeld second moments:      0.12589356       0.00464102      -0.00215244
  |                                  0.00464102       0.11929626       0.00235857
  |                                 -0.00215244       0.00235857       0.11532314
  ----------------------------------------------------------------------


  Total energy components:
  | Sum of eigenvalues            :        -180.68103907 Ha       -4916.58122609 eV
  | XC energy correction          :         -42.63884853 Ha       -1160.26210198 eV
  | XC potential correction       :          54.81895815 Ha        1491.69974798 eV
  | Free-atom electrostatic energy:        -146.85554586 Ha       -3996.14272439 eV
  | Hartree energy correction     :          -8.11847494 Ha        -220.91494311 eV
  | vdW energy correction         :          -0.00331312 Ha          -0.09015467 eV
  | Entropy correction            :           0.00000000 Ha           0.00000000 eV
  | ---------------------------
  | Total energy                  :        -323.47826338 Ha       -8802.29140226 eV
  | Total energy, T -> 0          :        -323.47826338 Ha       -8802.29140226 eV  <-- do not rely on this value for anything but (periodic) metals
  | Electronic free energy        :        -323.47826338 Ha       -8802.29140226 eV

  Derived energy quantities:
  | Kinetic energy                :         322.59249047 Ha        8778.18829496 eV
  | Electrostatic energy          :        -603.42859220 Ha      -16420.12744056 eV
  | Energy correction for multipole
  | error in Hartree potential    :           0.04139307 Ha           1.12636269 eV
  | Sum of eigenvalues per atom                           :        -378.19855585 eV
  | Total energy (T->0) per atom                          :        -677.09933864 eV  <-- do not rely on this value for anything but (periodic) metals
  | Electronic free energy per atom                       :        -677.09933864 eV

  atomic forces [eV/Ang]:
  -----------------------
  atom #    1
   Hellmann-Feynman              :  0.548944E+00  0.329425E+00  0.985828E+00
   Ionic forces                  :  0.000000E+00  0.000000E+00  0.000000E+00
   Multipole                     : -0.846607E-01  0.384533E+00 -0.284330E+00
   Pulay + GGA                   : -0.954323E+00 -0.321557E+00 -0.131806E+01
   Van der Waals                 :  0.709672E-02  0.542628E-02 -0.259933E-02
   ----------------------------------------------------------------
   Total forces(   1)            : -0.482943E+00  0.397827E+00 -0.619158E+00
  atom #    2
   Hellmann-Feynman              :  0.354421E+00  0.540041E-01  0.404300E-01
   Ionic forces                  :  0.000000E+00  0.000000E+00  0.000000E+00
   Multipole                     :  0.174194E+00  0.799599E-02 -0.341135E-01
   Pulay + GGA                   : -0.157505E+00 -0.644905E-02 -0.126155E-01
   Van der Waals                 :  0.588486E-02 -0.634858E-02 -0.510819E-02
   ----------------------------------------------------------------
   Total forces(   2)            :  0.376995E+00  0.492025E-01 -0.114072E-01
  atom #    3
   Hellmann-Feynman              :  0.786440E+01 -0.661720E+01 -0.568672E+01
   Ionic forces                  :  0.000000E+00  0.000000E+00  0.000000E+00
   Multipole                     : -0.276907E+00  0.191485E+00 -0.102086E+01
   Pulay + GGA                   : -0.703724E+01  0.590112E+01  0.721751E+01
   Van der Waals                 :  0.335181E-02 -0.562940E-02 -0.786782E-02
   ----------------------------------------------------------------
   Total forces(   3)            :  0.553599E+00 -0.530230E+00  0.502059E+00
  atom #    4
   Hellmann-Feynman              : -0.182158E+00  0.170441E+00 -0.877622E-01
   Ionic forces                  :  0.000000E+00  0.000000E+00  0.000000E+00
   Multipole                     : -0.924471E-01 -0.191672E-01 -0.571458E-01
   Pulay + GGA                   :  0.246830E+00 -0.104265E-01 -0.600854E-01
   Van der Waals                 :  0.444343E-03  0.215496E-02 -0.806916E-02
   ----------------------------------------------------------------
   Total forces(   4)            : -0.273305E-01  0.143002E+00 -0.213063E+00
  atom #    5
   Hellmann-Feynman              : -0.179319E+00  0.220368E+00 -0.138773E-01
   Ionic forces                  :  0.000000E+00  0.000000E+00  0.000000E+00
   Multipole                     : -0.563758E-01  0.501120E-01 -0.719744E-01
   Pulay + GGA                   :  0.717713E-01 -0.227150E+00  0.143263E-01
   Van der Waals                 : -0.324183E-02 -0.587486E-02 -0.545123E-02
   ----------------------------------------------------------------
   Total forces(   5)            : -0.167166E+00  0.374553E-01 -0.769766E-01
  atom #    6
   Hellmann-Feynman              :  0.235505E+00 -0.956605E+00  0.731945E+00
   Ionic forces                  :  0.000000E+00  0.000000E+00  0.000000E+00
   Multipole                     : -0.108844E+00  0.592731E+00  0.209314E+00
   Pulay + GGA                   :  0.103604E+00 -0.102446E+00 -0.499310E+00
   Van der Waals                 : -0.236180E-02  0.855016E-02  0.521367E-02
   ----------------------------------------------------------------
   Total forces(   6)            :  0.227904E+00 -0.457769E+00  0.447163E+00
  atom #    7
   Hellmann-Feynman              : -0.244071E+00 -0.430134E-01 -0.345577E-01
   Ionic forces                  :  0.000000E+00  0.000000E+00  0.000000E+00
   Multipole                     : -0.116668E+00  0.493972E-01  0.285326E-01
   Pulay + GGA                   :  0.106033E+00  0.237212E-01  0.545141E-03
   Van der Waals                 : -0.365597E-02  0.136612E-02  0.718313E-02
   ----------------------------------------------------------------
   Total forces(   7)            : -0.258362E+00  0.314710E-01  0.170311E-02
  atom #    8
   Hellmann-Feynman              :  0.824966E-01  0.699206E-01  0.234849E+00
   Ionic forces                  :  0.000000E+00  0.000000E+00  0.000000E+00
   Multipole                     :  0.139009E-01  0.622976E-01  0.122123E+00
   Pulay + GGA                   : -0.396615E-01 -0.413930E-01 -0.107512E+00
   Van der Waals                 : -0.317140E-02  0.111398E-01  0.420863E-03
   ----------------------------------------------------------------
   Total forces(   8)            :  0.535646E-01  0.101965E+00  0.249880E+00
  atom #    9
   Hellmann-Feynman              :  0.107444E+00  0.483689E-01 -0.200748E+00
   Ionic forces                  :  0.000000E+00  0.000000E+00  0.000000E+00
   Multipole                     :  0.200600E-01  0.133297E+00 -0.710363E-02
   Pulay + GGA                   : -0.339718E-01 -0.751074E-01  0.834062E-01
   Van der Waals                 : -0.203853E-02  0.550474E-02  0.751780E-02
   ----------------------------------------------------------------
   Total forces(   9)            :  0.914936E-01  0.112063E+00 -0.116927E+00
  atom #   10
   Hellmann-Feynman              :  0.336042E+01  0.548609E+01  0.189915E+01
   Ionic forces                  :  0.000000E+00  0.000000E+00  0.000000E+00
   Multipole                     :  0.389189E-01 -0.847164E-01  0.316636E+00
   Pulay + GGA                   : -0.906843E+00 -0.331977E+01 -0.620202E+00
   Van der Waals                 :  0.372191E-02 -0.107678E-01 -0.146967E-02
   ----------------------------------------------------------------
   Total forces(  10)            :  0.249622E+01  0.207084E+01  0.159412E+01
  atom #   11
   Hellmann-Feynman              :  0.396762E+01 -0.218962E+01  0.136715E+02
   Ionic forces                  :  0.000000E+00  0.000000E+00  0.000000E+00
   Multipole                     :  0.297392E-01 -0.662214E+00  0.806222E+00
   Pulay + GGA                   : -0.324810E+01  0.366013E+01 -0.134807E+02
   Van der Waals                 : -0.189613E-02 -0.116068E-01  0.285455E-02
   ----------------------------------------------------------------
   Total forces(  11)            :  0.747365E+00  0.796685E+00  0.999886E+00
  atom #   12
   Hellmann-Feynman              :  0.134041E+01 -0.102823E+02 -0.119993E+02
   Ionic forces                  :  0.000000E+00  0.000000E+00  0.000000E+00
   Multipole                     : -0.631973E+00 -0.142025E+01 -0.462492E+00
   Pulay + GGA                   : -0.351301E+01  0.990575E+01  0.994208E+01
   Van der Waals                 :  0.767811E-03  0.628396E-02  0.436318E-02
   ----------------------------------------------------------------
   Total forces(  12)            : -0.280380E+01 -0.179047E+01 -0.251533E+01
  atom #   13
   Hellmann-Feynman              : -0.111855E+01 -0.814379E+00 -0.133372E+00
   Ionic forces                  :  0.000000E+00  0.000000E+00  0.000000E+00
   Multipole                     : -0.567724E-01  0.121197E-01  0.113778E-01
   Pulay + GGA                   :  0.366953E+00 -0.159619E+00 -0.123838E+00
   Van der Waals                 : -0.490180E-02 -0.198637E-03  0.301221E-02
   ----------------------------------------------------------------
   Total forces(  13)            : -0.813270E+00 -0.962077E+00 -0.242820E+00

  Timings for VdW correction (Tkatchenko-Scheffler 2009 or later):
  | CPU time:        0.090 s, Wall clock time:        0.097 s.
  Removing unitary transformations (pure translations, rotations) from forces on atoms.
  Atomic forces before filtering:
  | Net force on center of mass :  -0.573347E-02 -0.363396E-04 -0.874077E-03 eV/A
  | Net torque on center of mass:  -0.857018E-02  0.116191E-02 -0.910467E-02 eV
  Atomic forces after filtering:
  | Net force on center of mass :  -0.107044E-14 -0.178406E-15 -0.133805E-15 eV/A
  | Net torque on center of mass:   0.113290E-14 -0.103849E-14  0.207699E-14 eV

  Energy and forces in a compact form:
  | Total energy uncorrected      :         -0.880229140226011E+04 eV
  | Total energy corrected        :         -0.880229140226011E+04 eV  <-- do not rely on this value for anything but (periodic) metals
  | Electronic free energy        :         -0.880229140226011E+04 eV
  Total atomic forces (unitary forces cleaned) [eV/Ang]:
  |   1         -0.482507048657756E+00          0.398039150417490E+00         -0.619066513505680E+00
  |   2          0.377430663520884E+00          0.497531554560301E-01         -0.112822685271437E-01
  |   3          0.554078134876417E+00         -0.529836252247431E+00          0.502135631624177E+00
  |   4         -0.267049822142502E-01          0.143124201980031E+00         -0.213122873808245E+00
  |   5         -0.166976103748505E+00          0.378944676960358E-01         -0.766767616834013E-01
  |   6          0.227926155839477E+00         -0.457881584074086E+00          0.447534922906874E+00
  |   7         -0.258348486873632E+00          0.310164445130225E-01          0.204808279827149E-02
  |   8          0.535518905629424E-01          0.101723583236199E+00          0.250265716727056E+00
  |   9          0.912527353394247E-01          0.112181311817186E+00         -0.116333957363725E+00
  |  10          0.249703110665764E+01          0.207075480280813E+01          0.159389533319942E+01
  |  11          0.748229157015342E+00          0.796424869804759E+00          0.999608254542031E+00
  |  12         -0.280270617526845E+01         -0.179061820309197E+01         -0.251577258564253E+01
  |  13         -0.812257047049531E+00         -0.962575948315398E+00         -0.243232981267106E+00

  ------------------------------------ 
  Start decomposition of the XC Energy 
  ------------------------------------ 
  X and C from original XC functional choice 
  Hartree-Fock Energy :          0.000000000 Ha              0.000000000 eV
  X Energy            :        -41.038178906 Ha          -1116.705665395 eV
  C Energy            :         -1.600669623 Ha            -43.556436582 eV
  Total XC Energy     :        -42.638848530 Ha          -1160.262101977 eV
  ------------------------------------ 
  LDA X and C from self-consistent density 
  X Energy LDA        :        -37.257027099 Ha          -1013.815289708 eV
  C Energy LDA        :         -3.138614532 Ha            -85.406046823 eV
  ------------------------------------ 
  End decomposition of the XC Energy 
  ------------------------------------ 

------------------------------------------------------------

------------------------------------------------------------------------------
  Final output of selected total energy values:

  The following output summarizes some interesting total energy values
  at the end of a run (AFTER all relaxation, molecular dynamics, etc.).

  | Total energy of the DFT / Hartree-Fock s.c.f. calculation      :          -8802.291402260 eV
  | Final zero-broadening corrected energy (caution - metals only) :          -8802.291402260 eV
  | For reference only, the value of 1 Hartree used in FHI-aims is :             27.211384500 eV

  Before relying on these values, please be sure to understand exactly which
  total energy value is referred to by a given number. Different objects may
  all carry the same name 'total energy'. Definitions:

  Total energy of the DFT / Hartree-Fock s.c.f. calculation:
  | Note that this energy does not include ANY quantities calculated after the
  | s.c.f. cycle, in particular not ANY RPA, MP2, etc. many-body perturbation terms.

  Final zero-broadening corrected energy:
  | For metallic systems only, a broadening of the occupation numbers at the Fermi
  | level can be extrapolated back to zero broadening by an electron-gas inspired
  | formula. For all systems that are not real metals, this value can be
  | meaningless and should be avoided.

------------------------------------------------------------------------------
  Methods described in the following list of references were used in this FHI-aims run.
  If you publish the results, please make sure to cite these reference if they apply.
  FHI-aims is an academic code, and for our developers (often, Ph.D. students
  and postdocs), scientific credit in the community is essential.
  Thank you for helping us!

  For any use of FHI-aims, please cite:

    Volker Blum, Ralf Gehrke, Felix Hanke, Paula Havu, Ville Havu,
    Xinguo Ren, Karsten Reuter, and Matthias Scheffler
    'Ab initio molecular simulations with numeric atom-centered orbitals'
    Computer Physics Communications 180, 2175-2196 (2009)
    http://dx.doi.org/10.1016/j.cpc.2009.06.022


  The scalable eigensolver library ELPA was used in your run.
  ELPA is essential especially for large systems on hundreds or thousands of CPUs.
  For ELPA, please cite:

    Andreas Marek, Volker Blum, Rainer Johanni, Ville Havu, Bruno Lang,
    Thomas Auckenthaler, Alexander Heinecke, Hans-Joachim Bungartz, and Hermann Lederer,
    'The ELPA Library - Scalable Parallel Eigenvalue Solutions
    for Electronic Structure Theory and Computational Science'
    The Journal of Physics: Condensed Matter 26, 213201 (2014).
    http://dx.doi.org/10.1088/0953-8984/26/21/213201


  The ELSI infrastructure was used in your run to solve the Kohn-Sham electronic structure.
  Please check out http://elsi-interchange.org to learn more.
  If scalability is important for your project, please acknowledge ELSI by citing:

    V. W-z. Yu, F. Corsetti, A. Garcia, W. P. Huhn, M. Jacquelin, W. Jia,
    B. Lange, L. Lin, J. Lu, W. Mi, A. Seifitokaldani, A. Vazquez-Mayagoitia,
    C. Yang, H. Yang, and V. Blum
    'ELSI: A unified software interface for Kohn-Sham electronic structure solvers'
    Computer Physics Communications 222, 267-285 (2018).
    http://dx.doi.org/10.1016/j.cpc.2017.09.007


  For the real-space grid partitioning and parallelization used in this calculation, please cite:

    Ville Havu, Volker Blum, Paula Havu, and Matthias Scheffler,
    'Efficient O(N) integration for all-electron electronic structure calculation'
    'using numerically tabulated basis functions'
    Journal of Computational Physics 228, 8367-8379 (2009).
    http://dx.doi.org/10.1016/j.jcp.2009.08.008

  Of course, there are many other important community references, e.g., those cited in the
  above references. Our list is limited to references that describe implementations in the
  FHI-aims code. The reason is purely practical (length of this list) - please credit others as well.

------------------------------------------------------------
          Leaving FHI-aims.
          Date     :  20200815, Time     :  005408.465

          Computational steps:
          | Number of self-consistency cycles          :           16
          | Number of SCF (re)initializations          :            1

          Detailed time accounting                     :  max(cpu_time)    wall_clock(cpu1)
          | Total time                                 :       22.598 s          22.661 s
          | Preparation time                           :        0.146 s           0.147 s
          | Boundary condition initalization           :        0.000 s           0.001 s
          | Grid partitioning                          :        0.111 s           0.111 s
          | Preloading free-atom quantities on grid    :        0.002 s           0.002 s
          | Free-atom superposition energy             :        0.084 s           0.085 s
          | Total time for integrations                :        8.596 s           8.605 s
          | Total time for solution of K.-S. equations :        0.036 s           0.037 s
          | Total time for density & force components  :        7.120 s           7.134 s
          | Total time for mixing                      :        0.213 s           0.217 s
          | Total time for Hartree multipole update    :        0.140 s           0.144 s
          | Total time for Hartree multipole sum       :        5.750 s           5.762 s
          | Total time for total energy evaluation     :        0.003 s           0.002 s
          | Total time for vdW correction              :        0.090 s           0.097 s

          Partial memory accounting:
          | Residual value for overall tracked memory usage across tasks :           0.000 MB (should be 0.000 MB)
          | Peak values for overall tracked memory usage (after allocating hessian_basis_wave):
          |   Minimum:        1.622 MB (on task 1)
          |   Maximum:        1.622 MB (on task 1)
          |   Average:        1.622 MB
          | Largest tracked array allocation (hessian_basis_wave):
          |   Minimum:        0.794 MB (on task 1)
          |   Maximum:        0.794 MB (on task 1)
          |   Average:        0.794 MB
          Note:  These values currently only include a subset of arrays which are explicitly tracked.
          The "true" memory usage will be greater.

          Have a nice day.
------------------------------------------------------------
