  MPI-parallelism will be employed.
------------------------------------------------------------
          Invoking FHI-aims ...
          Version 171221_1
          Compiled on 2019/09/09 at 14:39:39 on host puhti-login2.bullx.

          When using FHI-aims, please cite the following reference:

          Volker Blum, Ralf Gehrke, Felix Hanke, Paula Havu,
          Ville Havu, Xinguo Ren, Karsten Reuter, and Matthias Scheffler,
          'Ab Initio Molecular Simulations with Numeric Atom-Centered Orbitals',
          Computer Physics Communications 180, 2175-2196 (2009)

          For any questions about FHI-aims, please visit the aimsclub website
          with its forums and wiki. Contributions to both the forums and the
          wiki are warmly encouraged - they are for you, and everyone is welcome there.

------------------------------------------------------------



  Date     :  20200805, Time     :  184908.970
  Time zero on CPU 1             :   0.124660000000000E-01  s.
  Internal wall clock time zero  :           365885348.970  s.

  FHI-aims created a unique identifier for this run for later identification
  aims_uuid : 9239656A-7C63-4267-A611-71F70207A30E

  Using        1 parallel tasks.
  Task        0 on host r18c31.bullx reporting.

  Performing system and environment tests:
  | Environment variable OMP_NUM_THREADS correctly set to 1.
  | Stacksize not measured: no C compiler
  | Checking for scalapack...
  | Testing pdtran()...
  | All pdtran() tests passed.

  Obtaining array dimensions for all initial allocations:
  
  -----------------------------------------------------------------------
  Parsing control.in (first pass over file, find array dimensions only).
  The contents of control.in will be repeated verbatim below
  unless switched off by setting 'verbatim_writeout .false.' .
  in the first line of control.in .
  -----------------------------------------------------------------------
  
  #########################################################################################
  #
  #  Volker Blum, FHI 2009 : Test run input file control.in for simple H2O
  #
  #########################################################################################
  #
  #  Physical model
  #
    xc                 pbe
    vdw_correction_hirshfeld
    spin               none
    relativistic       none
    charge             0.
  #
  #  SCF convergence
  #
    occupation_type    gaussian 0.01
    mixer              pulay
      n_max_pulay        10
      charge_mix_param   0.2
    sc_accuracy_rho    1E-5
    sc_accuracy_eev    1E-3
    sc_accuracy_etot   1E-6
    sc_accuracy_forces 1E-4
    sc_iter_limit      100
  #
  #  Relaxation
  #
  #  relax_geometry   bfgs 1.e-3
  #
  ################################################################################
  #
  #  FHI-aims code project
  #  VB, Fritz-Haber Institut, 2009
  #
  #  Suggested "light" defaults for H atom (to be pasted into control.in file)
  #  Be sure to double-check any results obtained with these settings for post-processing,
  #  e.g., with the "tight" defaults and larger basis sets.
  #
  ################################################################################
    species        H
  #     global species definitions
      nucleus             1
      mass                1.00794
  #
      l_hartree           4
  #
      cut_pot             3.5  1.5  1.0
      basis_dep_cutoff    1e-4
  #
      radial_base         24 5.0
      radial_multiplier   1
      angular_grids       specified
        division   0.2421   50
        division   0.3822  110
        division   0.4799  194
        division   0.5341  302
  #      division   0.5626  434
  #      division   0.5922  590
  #      division   0.6542  770
  #      division   0.6868 1202
  #      outer_grid  770
        outer_grid  302
  ################################################################################
  #
  #  Definition of "minimal" basis
  #
  ################################################################################
  #     valence basis states
      valence      1  s   1.
  #     ion occupancy
      ion_occ      1  s   0.5
  ################################################################################
  #
  #  Suggested additional basis functions. For production calculations,
  #  uncomment them one after another (the most important basis functions are
  #  listed first).
  #
  #  Basis constructed for dimers: 0.5 A, 0.7 A, 1.0 A, 1.5 A, 2.5 A
  #
  ################################################################################
  #  "First tier" - improvements: -1014.90 meV to -62.69 meV
       hydro 2 s 2.1
       hydro 2 p 3.5
  #  "Second tier" - improvements: -12.89 meV to -1.83 meV
  #     hydro 1 s 0.85
  #     hydro 2 p 3.7
  #     hydro 2 s 1.2
  #     hydro 3 d 7
  #  "Third tier" - improvements: -0.25 meV to -0.12 meV
  #     hydro 4 f 11.2
  #     hydro 3 p 4.8
  #     hydro 4 d 9
  #     hydro 3 s 3.2
  ################################################################################
  #
  #  FHI-aims code project
  #  VB, Fritz-Haber Institut, 2009
  #
  #  Suggested "light" defaults for C atom (to be pasted into control.in file)
  #  Be sure to double-check any results obtained with these settings for post-processing,
  #  e.g., with the "tight" defaults and larger basis sets.
  #
  ################################################################################
    species        C
  #     global species definitions
      nucleus             6
      mass                12.0107
  #
      l_hartree           4
  #
      cut_pot             3.5  1.5  1.0
      basis_dep_cutoff    1e-4
  #
      radial_base         34 5.0
      radial_multiplier   1
      angular_grids specified
        division   0.3326   50
        division   0.5710  110
        division   0.7727  194
        division   0.8772  302
  #      division   0.9334  434
  #      division   0.9625  590
  #      division   0.9924  770
  #      division   1.0230  974
  #      division   1.4589 1202
  #     outer_grid  974
       outer_grid 302
  ################################################################################
  #
  #  Definition of "minimal" basis
  #
  ################################################################################
  #     valence basis states
      valence      2  s   2.
      valence      2  p   2.
  #     ion occupancy
      ion_occ      2  s   1.
      ion_occ      2  p   1.
  ################################################################################
  #
  #  Suggested additional basis functions. For production calculations,
  #  uncomment them one after another (the most important basis functions are
  #  listed first).
  #
  #  Constructed for dimers: 1.0 A, 1.25 A, 1.5 A, 2.0 A, 3.0 A
  #
  ################################################################################
  #  "First tier" - improvements: -1214.57 meV to -155.61 meV
       hydro 2 p 1.7
       hydro 3 d 6
       hydro 2 s 4.9
  #  "Second tier" - improvements: -67.75 meV to -5.23 meV
  #     hydro 4 f 9.8
  #     hydro 3 p 5.2
  #     hydro 3 s 4.3
  #     hydro 5 g 14.4
  #     hydro 3 d 6.2
  #  "Third tier" - improvements: -2.43 meV to -0.60 meV
  #     hydro 2 p 5.6
  #     hydro 2 s 1.4
  #     hydro 3 d 4.9
  #     hydro 4 f 11.2
  #  "Fourth tier" - improvements: -0.39 meV to -0.18 meV
  #     hydro 2 p 2.1
  #     hydro 5 g 16.4
  #     hydro 4 d 13.2
  #     hydro 3 s 13.6
  #     hydro 4 f 17.6
  #  Further basis functions - improvements: -0.08 meV and below
  #     hydro 3 s 2
  #     hydro 3 p 6
  #     hydro 4 d 20
  ################################################################################
  #
  #  FHI-aims code project
  #  VB, Fritz-Haber Institut, 2009
  #
  #  Suggested "light" defaults for N atom (to be pasted into control.in file)
  #  Be sure to double-check any results obtained with these settings for post-processing,
  #  e.g., with the "tight" defaults and larger basis sets.
  #
  ################################################################################
    species        N
  #     global species definitions
      nucleus             7
      mass                14.0067
  #
      l_hartree           4
  #
      cut_pot             3.5  1.5  1.0
      basis_dep_cutoff    1e-4
  #
      radial_base         35 5.0
      radial_multiplier   1
      angular_grids       specified
        division   0.2599   50
        division   0.4601  110
        division   0.5885  194
        division   0.6503  302
  #      division   0.6939  434
  #      division   0.7396  590
  #      division   0.7632  770
  #      division   0.8122  974
  #      division   1.1604 1202
  #      outer_grid  974
        outer_grid  302
  ################################################################################
  #
  #  Definition of "minimal" basis
  #
  ################################################################################
  #     valence basis states
      valence      2  s   2.
      valence      2  p   3.
  #     ion occupancy
      ion_occ      2  s   1.
      ion_occ      2  p   2.
  ################################################################################
  #
  #  Suggested additional basis functions. For production calculations,
  #  uncomment them one after another (the most important basis functions are
  #  listed first).
  #
  #  Constructed for dimers: 1.0 A, 1.1 A, 1.5 A, 2.0 A, 3.0 A
  #
  ################################################################################
  #  "First tier" - improvements: -1193.42 meV to -220.60 meV
       hydro 2 p 1.8
       hydro 3 d 6.8
       hydro 3 s 5.8
  #  "Second tier" - improvements: -80.21 meV to -6.86 meV
  #     hydro 4 f 10.8
  #     hydro 3 p 5.8
  #     hydro 1 s 0.8
  #     hydro 5 g 16
  #     hydro 3 d 4.9
  #  "Third tier" - improvements: -4.29 meV to -0.53 meV
  #     hydro 3 s 16
  #     ionic 2 p auto
  #     hydro 3 d 6.6
  #     hydro 4 f 11.6
  #  "Fourth tier" - improvements: -0.75 meV to -0.25 meV
  #     hydro 2 p 4.5
  #     hydro 2 s 2.4
  #     hydro 5 g 14.4
  #     hydro 4 d 14.4
  #     hydro 4 f 16.8
  # Further basis functions - -0.21 meV and below
  #     hydro 3 p 14.8
  #     hydro 3 s 4.4
  #     hydro 3 d 19.6
  #     hydro 5 g 12.8
  ################################################################################
  #
  #  FHI-aims code project
  #  VB, Fritz-Haber Institut, 2009
  #
  #  Suggested "light" defaults for O atom (to be pasted into control.in file)
  #  Be sure to double-check any results obtained with these settings for post-processing,
  #  e.g., with the "tight" defaults and larger basis sets.
  #
  ################################################################################
    species        O
  #     global species definitions
      nucleus             8
      mass                15.9994
  #
      l_hartree           4
  #
      cut_pot             3.5  1.5  1.0
      basis_dep_cutoff    1e-4
  #
      radial_base         36 5.0
      radial_multiplier   1
       angular_grids specified
        division   0.2659   50
        division   0.4451  110
        division   0.6052  194
        division   0.7543  302
  #      division   0.8014  434
  #      division   0.8507  590
  #      division   0.8762  770
  #      division   0.9023  974
  #      division   1.2339 1202
  #      outer_grid 974
        outer_grid 302
  ################################################################################
  #
  #  Definition of "minimal" basis
  #
  ################################################################################
  #     valence basis states
      valence      2  s   2.
      valence      2  p   4.
  #     ion occupancy
      ion_occ      2  s   1.
      ion_occ      2  p   3.
  ################################################################################
  #
  #  Suggested additional basis functions. For production calculations,
  #  uncomment them one after another (the most important basis functions are
  #  listed first).
  #
  #  Constructed for dimers: 1.0 A, 1.208 A, 1.5 A, 2.0 A, 3.0 A
  #
  ################################################################################
  #  "First tier" - improvements: -699.05 meV to -159.38 meV
       hydro 2 p 1.8
       hydro 3 d 7.6
       hydro 3 s 6.4
  #  "Second tier" - improvements: -49.91 meV to -5.39 meV
  #     hydro 4 f 11.6
  #     hydro 3 p 6.2
  #     hydro 3 d 5.6
  #     hydro 5 g 17.6
  #     hydro 1 s 0.75
  #  "Third tier" - improvements: -2.83 meV to -0.50 meV
  #     ionic 2 p auto
  #     hydro 4 f 10.8
  #     hydro 4 d 4.7
  #     hydro 2 s 6.8
  #  "Fourth tier" - improvements: -0.40 meV to -0.12 meV
  #     hydro 3 p 5
  #     hydro 3 s 3.3
  #     hydro 5 g 15.6
  #     hydro 4 f 17.6
  #     hydro 4 d 14
  # Further basis functions - -0.08 meV and below
  #     hydro 3 s 2.1
  #     hydro 4 d 11.6
  #     hydro 3 p 16
  #     hydro 2 s 17.2
  
  -----------------------------------------------------------------------
  Completed first pass over input file control.in .
  -----------------------------------------------------------------------
  
  
  -----------------------------------------------------------------------
  Parsing geometry.in (first pass over file, find array dimensions only).
  The contents of geometry.in will be repeated verbatim below
  unless switched off by setting 'verbatim_writeout .false.' .
  in the first line of geometry.in .
  -----------------------------------------------------------------------
  
  atom  0.00000 0.00000 0.00000 C
  atom  1.09300 0.00000 0.00000 H
  atom  -0.47961 0.00000 -1.41207 N
  atom  0.31842 0.15792 -2.02855 H
  atom  -0.90588 -0.90236 -1.61249 H
  atom  -0.49584 1.26211 0.72868 C
  atom  -1.58789 1.28919 0.74431 H
  atom  -0.13407 1.27425 1.75947 H
  atom  -0.13407 2.16087 0.22380 H
  atom  -0.39425 -1.28861 0.74398 C
  atom  -0.10189 -1.56493 1.88303 O
  atom  -1.10210 -2.13717 0.06896 O
  atom  -0.77340 -2.95459 0.47976 H
  
  -----------------------------------------------------------------------
  Completed first pass over input file geometry.in .
  -----------------------------------------------------------------------
  

  Basic array size parameters:
  | Number of species                 :        4
  | Number of atoms                   :       13
  | Max. basis fn. angular momentum   :        2
  | Max. atomic/ionic basis occupied n:        2
  | Max. number of basis fn. types    :        2
  | Max. radial fns per species/type  :        3
  | Max. logarithmic grid size        :     1301
  | Max. radial integration grid size :       36
  | Max. angular integration grid size:      302
  | Max. angular grid division number :        8
  | Radial grid for Hartree potential :     1301
  | Number of spin channels           :        1

------------------------------------------------------------
          Reading file control.in.
------------------------------------------------------------
  XC: Using PBE gradient-corrected functionals.
  Spin treatment: No spin polarisation.
  Non-relativistic treatment of kinetic energy.
  Charge =   0.000000E+00: Neutral system requested explicitly.
  Occupation type: Gaussian broadening, width =   0.100000E-01 eV.
  Using pulay charge density mixing.
  Pulay mixing - number of memorized iterations:   10
  Charge density mixing - mixing parameter:     0.2000
  Convergence accuracy of self-consistent charge density:  0.1000E-04
  Convergence accuracy of sum of eigenvalues:  0.1000E-02
  Convergence accuracy of total energy:  0.1000E-05
  Convergence accuracy of forces:  0.1000E-03
  Maximum number of s.-c. iterations  :   100
 
  Reading configuration options for species H                   .
  | Found nuclear charge :   1.0000
  | Found atomic mass :    1.00794000000000      amu
  | Found l_max for Hartree potential  :   4
  | Found cutoff potl. onset [A], width [A], scale factor :    3.50000    1.50000    1.00000
  | Threshold for basis-dependent cutoff potential is   0.100000E-03
  | Found data for basic radial integration grid :    24 points, outermost radius =    5.000 A
  | Found multiplier for basic radial grid :   1
  | Found angular grid specification: user-specified.
  | Specified grid contains     5 separate shells.
  | Check grid settings after all constraints further below.
  | Found free-atom valence shell :  1 s   1.000
  | No ionic wave fns used. Skipping ion_occ.
  | Found hydrogenic basis function :  2 s   2.100
  | Found hydrogenic basis function :  2 p   3.500
  Species H                   : Missing cutoff potential type.
  Defaulting to exp(1/x)/(1-x)^2 type cutoff potential.
  Species H : No 'logarithmic' tag. Using default grid for free atom:
  | Default logarithmic grid data [bohr] : 0.1000E-03 0.1000E+03 0.1012E+01
  Species H : On-site basis accuracy parameter (for Gram-Schmidt orthonormalisation) not specified.
  Using default value basis_acc =  0.1000000E-03.
  Species H                   : Using default innermost maximum threshold i_radial=  2 for radial functions.
  Species H                   : Default cutoff onset for free atom density etc. : 0.35000000E+01 AA.
  Species H                   : Basic radial grid will be enhanced according to radial_multiplier =   1, to contain    24 grid points.
 
  Reading configuration options for species C                   .
  | Found nuclear charge :   6.0000
  | Found atomic mass :    12.0107000000000      amu
  | Found l_max for Hartree potential  :   4
  | Found cutoff potl. onset [A], width [A], scale factor :    3.50000    1.50000    1.00000
  | Threshold for basis-dependent cutoff potential is   0.100000E-03
  | Found data for basic radial integration grid :    34 points, outermost radius =    5.000 A
  | Found multiplier for basic radial grid :   1
  | Found angular grid specification: user-specified.
  | Specified grid contains     5 separate shells.
  | Check grid settings after all constraints further below.
  | Found free-atom valence shell :  2 s   2.000
  | Found free-atom valence shell :  2 p   2.000
  | No ionic wave fns used. Skipping ion_occ.
  | No ionic wave fns used. Skipping ion_occ.
  | Found hydrogenic basis function :  2 p   1.700
  | Found hydrogenic basis function :  3 d   6.000
  | Found hydrogenic basis function :  2 s   4.900
  Species C                   : Missing cutoff potential type.
  Defaulting to exp(1/x)/(1-x)^2 type cutoff potential.
  Species C : No 'logarithmic' tag. Using default grid for free atom:
  | Default logarithmic grid data [bohr] : 0.1000E-03 0.1000E+03 0.1012E+01
  Species C : On-site basis accuracy parameter (for Gram-Schmidt orthonormalisation) not specified.
  Using default value basis_acc =  0.1000000E-03.
  Species C                   : Using default innermost maximum threshold i_radial=  2 for radial functions.
  Species C                   : Default cutoff onset for free atom density etc. : 0.35000000E+01 AA.
  Species C                   : Basic radial grid will be enhanced according to radial_multiplier =   1, to contain    34 grid points.
 
  Reading configuration options for species N                   .
  | Found nuclear charge :   7.0000
  | Found atomic mass :    14.0067000000000      amu
  | Found l_max for Hartree potential  :   4
  | Found cutoff potl. onset [A], width [A], scale factor :    3.50000    1.50000    1.00000
  | Threshold for basis-dependent cutoff potential is   0.100000E-03
  | Found data for basic radial integration grid :    35 points, outermost radius =    5.000 A
  | Found multiplier for basic radial grid :   1
  | Found angular grid specification: user-specified.
  | Specified grid contains     5 separate shells.
  | Check grid settings after all constraints further below.
  | Found free-atom valence shell :  2 s   2.000
  | Found free-atom valence shell :  2 p   3.000
  | No ionic wave fns used. Skipping ion_occ.
  | No ionic wave fns used. Skipping ion_occ.
  | Found hydrogenic basis function :  2 p   1.800
  | Found hydrogenic basis function :  3 d   6.800
  | Found hydrogenic basis function :  3 s   5.800
  Species N                   : Missing cutoff potential type.
  Defaulting to exp(1/x)/(1-x)^2 type cutoff potential.
  Species N : No 'logarithmic' tag. Using default grid for free atom:
  | Default logarithmic grid data [bohr] : 0.1000E-03 0.1000E+03 0.1012E+01
  Species N : On-site basis accuracy parameter (for Gram-Schmidt orthonormalisation) not specified.
  Using default value basis_acc =  0.1000000E-03.
  Species N                   : Using default innermost maximum threshold i_radial=  2 for radial functions.
  Species N                   : Default cutoff onset for free atom density etc. : 0.35000000E+01 AA.
  Species N                   : Basic radial grid will be enhanced according to radial_multiplier =   1, to contain    35 grid points.
 
  Reading configuration options for species O                   .
  | Found nuclear charge :   8.0000
  | Found atomic mass :    15.9994000000000      amu
  | Found l_max for Hartree potential  :   4
  | Found cutoff potl. onset [A], width [A], scale factor :    3.50000    1.50000    1.00000
  | Threshold for basis-dependent cutoff potential is   0.100000E-03
  | Found data for basic radial integration grid :    36 points, outermost radius =    5.000 A
  | Found multiplier for basic radial grid :   1
  | Found angular grid specification: user-specified.
  | Specified grid contains     5 separate shells.
  | Check grid settings after all constraints further below.
  | Found free-atom valence shell :  2 s   2.000
  | Found free-atom valence shell :  2 p   4.000
  | No ionic wave fns used. Skipping ion_occ.
  | No ionic wave fns used. Skipping ion_occ.
  | Found hydrogenic basis function :  2 p   1.800
  | Found hydrogenic basis function :  3 d   7.600
  | Found hydrogenic basis function :  3 s   6.400
  Species O                   : Missing cutoff potential type.
  Defaulting to exp(1/x)/(1-x)^2 type cutoff potential.
  Species O : No 'logarithmic' tag. Using default grid for free atom:
  | Default logarithmic grid data [bohr] : 0.1000E-03 0.1000E+03 0.1012E+01
  Species O : On-site basis accuracy parameter (for Gram-Schmidt orthonormalisation) not specified.
  Using default value basis_acc =  0.1000000E-03.
  Species O                   : Using default innermost maximum threshold i_radial=  2 for radial functions.
  Species O                   : Default cutoff onset for free atom density etc. : 0.35000000E+01 AA.
  Species O                   : Basic radial grid will be enhanced according to radial_multiplier =   1, to contain    36 grid points.
 
  Finished reading input file 'control.in'. Consistency checks are next.
 
  MPI_IN_PLACE appears to work with this MPI implementation.
  | Keeping use_mpi_in_place .true. (see manual).
  Target number of points in a grid batch is not set. Defaulting to  100
  Method for grid partitioning is not set. Defaulting to parallel hash+maxmin partitioning.
  Batch size limit is not set. Defaulting to    200
  By default, will store active basis functions for each batch.
  If in need of memory, prune_basis_once .false. can be used to disable this option.
  communication_type for Hartree potential was not specified.
  Defaulting to calc_hartree .
  Pulay mixer: Number of initial linear mixing iterations not set.
  Defaulting to    0 iterations.
  Work space size for distributed Hartree potential not set.
  Defaulting to   0.200000E+03 MB.
  Algorithm-dependent basis array size parameters:
  | n_max_pulay                         :       10
  Presetting      1001 iterations before the initial mixing cycle
  is restarted anyway using the sc_init_iter criterion / keyword.
  Presetting a factor      1.000 between actual scf density residual
  and density convergence criterion sc_accuracy_rho below which sc_init_iter
  takes no effect.
  Geometry relaxation not requested: no relaxation will be performed.
  Handling of forces: Unphysical translation and rotation will be removed from forces.
  No accuracy limit for integral partition fn. given. Defaulting to  0.1000E-14.
  No threshold value for u(r) in integrations given. Defaulting to  0.1000E-05.
  No accuracy for occupation numbers given. Defaulting to  0.1000E-12.
  No threshold value for occupation numbers given. Defaulting to  0.0000E+00.
  No accuracy for fermi level given. Defaulting to  0.1000E-19.
  Maximum # of iterations to find E_F not set. Defaulting to  200.
  Preferred method for the eigenvalue solver ('KS_method') not specified in 'control.in'.
  Defaulting to serial version, 'lapack_fast'.
  Will not use alltoall communication since running on < 1024 CPUs.
  Threshold for basis singularities not set.
  Default threshold for basis singularities:  0.1000E-04
  partition_type (choice of integration weights) for integrals was not specified.
  | Using a version of the partition function of Stratmann and coworkers ('stratmann_smoother').
  | At each grid point, the set of atoms used to build the partition table is smoothly restricted to
  | only those atoms whose free-atom density would be non-zero at that grid point.
  Partitioning for Hartree potential was not defined. Using partition_type for integrals.
  | Adjusted default value of keyword multip_moments_threshold to:       0.10000000E-11
  | This value may affect high angular momentum components of the Hartree potential in periodic systems.
  No q(lm)/r^(l+1) cutoff set for long-range Hartree potential.
  | Using default value of  0.100000E-09 .
  | Verify using the multipole_threshold keyword.
  Defaulting to new monopole extrapolation.
  Density update method: automatic selection selected.
------------------------------------------------------------


------------------------------------------------------------
          Reading geometry description geometry.in.
------------------------------------------------------------
  Input structure read successfully.
  The structure contains       13 atoms,  and a total of         48.000 electrons.

  Input geometry:
  | No unit cell requested.
  | Atomic structure:
  |       Atom                x [A]            y [A]            z [A]
  |    1: Species C             0.00000000        0.00000000        0.00000000
  |    2: Species H             1.09300000        0.00000000        0.00000000
  |    3: Species N            -0.47961000        0.00000000       -1.41207000
  |    4: Species H             0.31842000        0.15792000       -2.02855000
  |    5: Species H            -0.90588000       -0.90236000       -1.61249000
  |    6: Species C            -0.49584000        1.26211000        0.72868000
  |    7: Species H            -1.58789000        1.28919000        0.74431000
  |    8: Species H            -0.13407000        1.27425000        1.75947000
  |    9: Species H            -0.13407000        2.16087000        0.22380000
  |   10: Species C            -0.39425000       -1.28861000        0.74398000
  |   11: Species O            -0.10189000       -1.56493000        1.88303000
  |   12: Species O            -1.10210000       -2.13717000        0.06896000
  |   13: Species H            -0.77340000       -2.95459000        0.47976000
  |

  | The smallest distance between any two atoms is         0.97209865 AA.
  |
  | The first atom of this pair is atom number                     12 .
  | The second atom of this pair is atom number                    13 .

  Number of empty states per atom not set in control.in - providing a guess from actual geometry.
  | Total number of empty states used during s.c.f. cycle:       29
  If you use a very high smearing, use empty_states (per atom!) in control.in to increase this value.

  Structure-dependent array size parameters: 
  | Maximum number of distinct radial functions  :       21
  | Maximum number of basis functions            :      119
  | Number of Kohn-Sham states (occupied + empty):       53
------------------------------------------------------------

------------------------------------------------------------
          Preparing all fixed parts of the calculation.
------------------------------------------------------------
  Determining machine precision:
    2.225073858507201E-308
  Setting up grids for atomic and cluster calculations.

  Creating wave function, potential, and density for free atoms.

  Species: H

  List of occupied orbitals and eigenvalues:
    n    l              occ      energy [Ha]    energy [eV]
    1    0           1.0000        -0.237589        -6.4651


  Species: C

  List of occupied orbitals and eigenvalues:
    n    l              occ      energy [Ha]    energy [eV]
    1    0           2.0000       -10.038835      -273.1706
    2    0           2.0000        -0.502696       -13.6791
    2    1           2.0000        -0.191971        -5.2238


  Species: N

  List of occupied orbitals and eigenvalues:
    n    l              occ      energy [Ha]    energy [eV]
    1    0           2.0000       -14.128000      -384.4424
    2    0           2.0000        -0.681077       -18.5330
    2    1           3.0000        -0.259788        -7.0692


  Species: O

  List of occupied orbitals and eigenvalues:
    n    l              occ      energy [Ha]    energy [eV]
    1    0           2.0000       -18.898188      -514.2459
    2    0           2.0000        -0.878505       -23.9053
    2    1           4.0000        -0.331779        -9.0282

  Creating fixed part of basis set: Ionic, confined, hydrogenic.
 
  H                    hydrogenic:
 
  List of hydrogenic basis orbitals: 
    n    l      effective z      eigenvalue [eV]  inner max. [A]     outer max. [A]     outer radius [A]   
    2    0         2.100000       -14.9728           0.193243           1.317208           4.583499
    2    1         3.500000       -41.6669           0.602369           0.602369           3.723403
 
 
  C                    hydrogenic:
 
  List of hydrogenic basis orbitals: 
    n    l      effective z      eigenvalue [eV]  inner max. [A]     outer max. [A]     outer radius [A]   
    2    1         1.700000        -9.7616           1.230570           1.230570           4.607917
    3    2         6.000000       -54.4224           0.792453           0.792453           3.883070
    2    0         4.900000       -81.6679           0.082559           0.562749           3.078220
 
 
  N                    hydrogenic:
 
  List of hydrogenic basis orbitals: 
    n    l      effective z      eigenvalue [eV]  inner max. [A]     outer max. [A]     outer radius [A]   
    2    1         1.800000       -10.9749           1.177451           1.177451           4.573712
    3    2         6.800000       -69.9026           0.704619           0.704619           3.538137
    3    0         5.800000       -50.8545           0.067388           1.191934           4.250239
 
 
  O                    hydrogenic:
 
  List of hydrogenic basis orbitals: 
    n    l      effective z      eigenvalue [eV]  inner max. [A]     outer max. [A]     outer radius [A]   
    2    1         1.800000       -10.9749           1.164242           1.164242           4.578029
    3    2         7.600000       -87.3180           0.624125           0.624125           3.251020
    3    0         6.400000       -61.9207           0.061167           1.081902           4.001998
 

  Adding cutoff potential to free-atom effective potential.
  Creating atomic-like basis functions for current effective potential.

  Species H                   :

  List of atomic basis orbitals and eigenvalues:
    n    l      energy [Ha]    energy [eV]    outer radius [A]
    1    0        -0.237589        -6.4651       4.527807


  Species C                   :

  List of atomic basis orbitals and eigenvalues:
    n    l      energy [Ha]    energy [eV]    outer radius [A]
    1    0       -10.038835      -273.1706       1.934409
    2    0        -0.502696       -13.6791       4.496620
    2    1        -0.191971        -5.2238       4.551928


  Species N                   :

  List of atomic basis orbitals and eigenvalues:
    n    l      energy [Ha]    energy [eV]    outer radius [A]
    1    0       -14.128000      -384.4424       1.637919
    2    0        -0.681077       -18.5330       4.463241
    2    1        -0.259788        -7.0692       4.518138


  Species O                   :

  List of atomic basis orbitals and eigenvalues:
    n    l      energy [Ha]    energy [eV]    outer radius [A]
    1    0       -18.898188      -514.2459       1.415765
    2    0        -0.878505       -23.9053       4.413171
    2    1        -0.331779        -9.0282       4.522403

  Assembling full basis from fixed parts.
  | Species H :   atomic orbital   1 s accepted.
  | Species H :    hydro orbital   2 s accepted.
  | Species H :    hydro orbital   2 p accepted.
  | Species C :   atomic orbital   1 s accepted.
  | Species C :    hydro orbital   2 s accepted.
  | Species C :   atomic orbital   2 s accepted.
  | Species C :   atomic orbital   2 p accepted.
  | Species C :    hydro orbital   2 p accepted.
  | Species C :    hydro orbital   3 d accepted.
  | Species N :   atomic orbital   1 s accepted.
  | Species N :    hydro orbital   3 s accepted.
  | Species N :   atomic orbital   2 s accepted.
  | Species N :   atomic orbital   2 p accepted.
  | Species N :    hydro orbital   2 p accepted.
  | Species N :    hydro orbital   3 d accepted.
  | Species O :   atomic orbital   1 s accepted.
  | Species O :    hydro orbital   3 s accepted.
  | Species O :   atomic orbital   2 s accepted.
  | Species O :   atomic orbital   2 p accepted.
  | Species O :    hydro orbital   2 p accepted.
  | Species O :    hydro orbital   3 d accepted.
 
  Basis size parameters after reduction:
  | Total number of radial functions:       21
  | Total number of basis functions :      119
 
  Per-task memory consumption for arrays in subroutine allocate_ext:
  |           5.250512MB.
  Testing on-site integration grid accuracy.
  |  Species  Function  <phi|h_atom|phi> (log., in eV)  <phi|h_atom|phi> (rad., in eV)
           1        1                 -6.4663192853                 -6.4651273558
           1        2                 13.7111246313                 13.7170609718
           1        3                 25.2673269279                 25.2674696378
           2        4               -273.1705927641               -273.1705631568
           2        5                -10.7109323383                -10.7107120029
           2        6                 17.4381822266                 17.4352413244
           2        7                 -5.2255326521                 -5.2270484734
           2        8                  8.6835629259                  8.6603288385
           2        9                 27.4952418996                 27.4953360207
           3       10               -384.4424306495               -384.4423701208
           3       11                 12.5842251816                 12.5842222903
           3       12                -15.7264628251                -15.7264433455
           3       13                 -7.0696854293                 -7.0701769954
           3       14                  8.8090390882                  8.7901077751
           3       15                 35.9586762123                 35.9588528632
           4       16               -514.2458688638               -514.2457643834
           4       17                 15.1795651126                 15.1795290741
           4       18                -21.5359799773                -21.5360846186
           4       19                 -9.0283069236                 -9.0284644067
           4       20                  8.3027758564                  8.2834874195
           4       21                 45.8339351984                 45.8338762259

  Preparing densities etc. for the partition functions (integrals / Hartree potential).

  Preparations completed.
  max(cpu_time)          :      0.156 s.
  Wall clock time (cpu1) :      0.158 s.
------------------------------------------------------------

------------------------------------------------------------
          Begin self-consistency loop: Initialization.

          Date     :  20200805, Time     :  184909.143
------------------------------------------------------------

  Initializing index lists of integration centers etc. from given atomic structure:
  | Number of centers in hartree potential         :        13
  | Number of centers in hartree multipole         :        13
  | Number of centers in electron density summation:        13
  | Number of centers in basis integrals           :        13
  | Number of centers in integrals                 :        13
  | Number of centers in hamiltonian               :        13
  Partitioning the integration grid into batches with parallel hashing+maxmin method.
  | Number of batches:      956
  | Maximal batch size:     139
  | Minimal batch size:      66
  | Average batch size:      72.851
  | Standard deviation of batch sizes:      17.492

  Integration load balanced across     1 MPI tasks.
  Work distribution over tasks is as follows:
  Task     0 has      69646 integration points.
  Initializing partition tables, free-atom densities, potentials, etc. across the integration grid (initialize_grid_storage).
  | initialize_grid_storage: Actual outermost partition radius vs. multipole_radius_free
  | (-- VB: in principle, multipole_radius_free should be larger, hence this output)
  | Species        1: Confinement radius =              4.999999999999999 AA, multipole_radius_free =              5.054417573612229 AA.
  | Species        1: outer_partition_radius set to              5.054417573612229 AA .
  | Species        2: Confinement radius =              4.999999999999999 AA, multipole_radius_free =              5.019602836301480 AA.
  | Species        2: outer_partition_radius set to              5.019602836301480 AA .
  | Species        3: Confinement radius =              4.999999999999999 AA, multipole_radius_free =              5.043624274424571 AA.
  | Species        3: outer_partition_radius set to              5.043624274424571 AA .
  | Species        4: Confinement radius =              4.999999999999999 AA, multipole_radius_free =              5.048384829883283 AA.
  | Species        4: outer_partition_radius set to              5.048384829883283 AA .
  | Original list of interatomic distances with          13 x         13 entries is created.
  | Net number of integration points:    69646
  | of which are non-zero points    :    59652
  Renormalizing the initial density to the exact electron count on the 3D integration grid.
  | Initial density: Formal number of electrons (from input files) :      48.0000000000
  | Integrated number of electrons on 3D grid     :      47.9999989708
  | Charge integration error                      :      -0.0000010292
  | Normalization factor for density and gradient :       1.0000000214
  Obtaining max. number of non-zero basis functions in each batch (get_n_compute_maxes).
  | Maximal number of non-zero basis functions:      119 in task     0
  Selecting the method for density update.
  Loop over occupied states selected for charge density update.
  Allocating        0.050 MB for KS_eigenvector
  Integrating Hamiltonian matrix: batch-based integration.
  Time summed over all CPUs for integration: real work        0.511 s, elapsed        0.511 s
  Integrating overlap matrix.
  Time summed over all CPUs for integration: real work        0.213 s, elapsed        0.213 s

  Updating Kohn-Sham eigenvalues and eigenvectors using ELSI and the ELPA eigensolver.
  Overlap matrix is nonsingular
  | Lowest eigenvalue of overlap  :  0.46E-02
  | Highest eigenvalue of overlap :  0.60E+01
  Finished singularity check of overlap matrix
  | Time :     0.001 s
  Finished Cholesky decomposition
  | Time :     0.001 s
  Finished transformation to standard eigenproblem
  | Time :     0.000 s
  Starting LAPACK eigensolver
  Finished solving standard eigenproblem
  | Time :     0.002 s
  Finished back-transformation of eigenvectors
  | Time :     0.000 s

  Obtaining occupation numbers and chemical potential using ELSI.
  | Chemical potential (Fermi level):    -9.88663085eV
  Writing Kohn-Sham eigenvalues.

  State    Occupation    Eigenvalue [Ha]    Eigenvalue [eV]
      1       2.00000         -19.008452         -517.24629
      2       2.00000         -18.978069         -516.41953
      3       2.00000         -14.245787         -387.64758
      4       2.00000         -10.166584         -276.64682
      5       2.00000         -10.141240         -275.95717
      6       2.00000         -10.132153         -275.70990
      7       2.00000          -1.188051          -32.32852
      8       2.00000          -1.094156          -29.77351
      9       2.00000          -0.991035          -26.96743
     10       2.00000          -0.861829          -23.45156
     11       2.00000          -0.757718          -20.61855
     12       2.00000          -0.684390          -18.62321
     13       2.00000          -0.621897          -16.92268
     14       2.00000          -0.609585          -16.58764
     15       2.00000          -0.586415          -15.95718
     16       2.00000          -0.565094          -15.37699
     17       2.00000          -0.548286          -14.91963
     18       2.00000          -0.536299          -14.59345
     19       2.00000          -0.516175          -14.04583
     20       2.00000          -0.494006          -13.44259
     21       2.00000          -0.476769          -12.97355
     22       2.00000          -0.429910          -11.69846
     23       2.00000          -0.406644          -11.06535
     24       2.00000          -0.387268          -10.53809
     25       0.00000          -0.153316           -4.17194
     26       0.00000          -0.057997           -1.57817
     27       0.00000          -0.027999           -0.76188
     28       0.00000          -0.022555           -0.61374
     29       0.00000           0.003114            0.08473
     30       0.00000           0.011081            0.30153
     31       0.00000           0.022595            0.61485
     32       0.00000           0.028954            0.78788
     33       0.00000           0.039035            1.06219
     34       0.00000           0.070947            1.93056
     35       0.00000           0.086570            2.35570
     36       0.00000           0.132733            3.61185
     37       0.00000           0.158529            4.31378
     38       0.00000           0.198220            5.39385
     39       0.00000           0.208246            5.66666
     40       0.00000           0.221879            6.03763
     41       0.00000           0.261054            7.10363
     42       0.00000           0.276790            7.53183
     43       0.00000           0.294558            8.01533
     44       0.00000           0.310404            8.44652
     45       0.00000           0.335184            9.12081
     46       0.00000           0.363817            9.89996
     47       0.00000           0.386274           10.51106
     48       0.00000           0.409219           11.13542
     49       0.00000           0.422021           11.48378
     50       0.00000           0.471554           12.83164
     51       0.00000           0.516172           14.04575
     52       0.00000           0.533003           14.50376
     53       0.00000           0.553646           15.06548

  Highest occupied state (VBM) at    -10.53808504 eV
  | Occupation number:      2.00000000

  Lowest unoccupied state (CBM) at    -4.17193787 eV
  | Occupation number:      0.00000000

  Overall HOMO-LUMO gap:      6.36614717 eV.
  Calculating total energy contributions from superposition of free atom densities.

  Total energy components:
  | Sum of eigenvalues            :        -188.85562540 Ha       -5139.02303782 eV
  | XC energy correction          :         -41.78954088 Ha       -1137.15126501 eV
  | XC potential correction       :          53.72108342 Ha        1461.82505668 eV
  | Free-atom electrostatic energy:        -146.84614526 Ha       -3995.88692097 eV
  | Hartree energy correction     :           0.00000000 Ha           0.00000000 eV
  | vdW energy correction         :           0.00000000 Ha           0.00000000 eV
  | Entropy correction            :           0.00000000 Ha           0.00000000 eV
  | ---------------------------
  | Total energy                  :        -323.77022812 Ha       -8810.23616712 eV
  | Total energy, T -> 0          :        -323.77022812 Ha       -8810.23616712 eV  <-- do not rely on this value for anything but (periodic) metals
  | Electronic free energy        :        -323.77022812 Ha       -8810.23616712 eV

  Derived energy quantities:
  | Kinetic energy                :         320.48902889 Ha        8720.95019316 eV
  | Electrostatic energy          :        -602.46971613 Ha      -16394.03509528 eV
  | Energy correction for multipole
  | error in Hartree potential    :           0.00000000 Ha           0.00000000 eV
  | Sum of eigenvalues per atom                           :        -395.30946445 eV
  | Total energy (T->0) per atom                          :        -677.71047439 eV  <-- do not rely on this value for anything but (periodic) metals
  | Electronic free energy per atom                       :        -677.71047439 eV
  Initialize hartree_potential_storage
  Max. number of atoms included in rho_multipole:           13

  End scf initialization - timings             :  max(cpu_time)    wall_clock(cpu1)
  | Time for scf. initialization               :        1.172 s           1.174 s
  | Boundary condition initialization          :        0.000 s           0.000 s
  | Integration                                :        0.724 s           0.725 s
  | Solution of K.-S. eqns.                    :        0.004 s           0.005 s
  | Grid partitioning                          :        0.114 s           0.114 s
  | Preloading free-atom quantities on grid    :        0.002 s           0.003 s
  | Free-atom superposition energy             :        0.085 s           0.085 s
  | Total energy evaluation                    :        0.000 s           0.000 s

  Partial memory accounting:
  | Current value for overall tracked memory usage on task 0  :           0.165 MB
  | Peak value for overall tracked memory usage on task 0     :           0.678 MB after allocating wave
  | Largest tracked array allocation on task 0 so far         :           0.132 MB  when allocating H_times_psi
  Note:  These values currently only include a subset of arrays which are explicitly tracked.
  The "true" memory usage will be greater.
------------------------------------------------------------

------------------------------------------------------------
          Begin self-consistency iteration #    1

  Date     :  20200805, Time     :  184910.318
------------------------------------------------------------
  Evaluating new KS density.
  Integration grid: deviation in total charge (<rho> - N_e) =   4.973799E-14
  Pulay mixing of updated and previous charge densities.

  Evaluating partitioned Hartree potential by multipole expansion.
  | Analytical far-field extrapolation by fixed multipoles:
  | Hartree multipole sum: apparent total charge =  -0.109513E-03
  Summing up the Hartree potential.
  Time summed over all CPUs for potential: real work        0.284 s, elapsed        0.284 s
  | RMS charge density error from multipole expansion :   0.587692E-02

  Integrating Hamiltonian matrix: batch-based integration.
  Time summed over all CPUs for integration: real work        0.509 s, elapsed        0.509 s

  Updating Kohn-Sham eigenvalues and eigenvectors using ELSI and the ELPA eigensolver.
  Finished Cholesky decomposition
  | Time :     0.000 s
  Finished transformation to standard eigenproblem
  | Time :     0.000 s
  Starting LAPACK eigensolver
  Finished solving standard eigenproblem
  | Time :     0.002 s
  Finished back-transformation of eigenvectors
  | Time :     0.000 s

  Obtaining occupation numbers and chemical potential using ELSI.
  | Chemical potential (Fermi level):    -4.69556179eV
  Writing Kohn-Sham eigenvalues.

  State    Occupation    Eigenvalue [Ha]    Eigenvalue [eV]
      1       2.00000         -18.910343         -514.57661
      2       2.00000         -18.839709         -512.65455
      3       2.00000         -14.093412         -383.50125
      4       2.00000         -10.117907         -275.32225
      5       2.00000         -10.061625         -273.79073
      6       2.00000         -10.026120         -272.82460
      7       2.00000          -1.142020          -31.07594
      8       2.00000          -1.033817          -28.13158
      9       2.00000          -0.919792          -25.02883
     10       2.00000          -0.793181          -21.58355
     11       2.00000          -0.707006          -19.23861
     12       2.00000          -0.638111          -17.36388
     13       2.00000          -0.567414          -15.44011
     14       2.00000          -0.546254          -14.86433
     15       2.00000          -0.526762          -14.33392
     16       2.00000          -0.512138          -13.93597
     17       2.00000          -0.487609          -13.26851
     18       2.00000          -0.473688          -12.88970
     19       2.00000          -0.449174          -12.22266
     20       2.00000          -0.435343          -11.84629
     21       2.00000          -0.422709          -11.50249
     22       2.00000          -0.372115          -10.12577
     23       2.00000          -0.337336           -9.17939
     24       2.00000          -0.310847           -8.45857
     25       0.00000          -0.118705           -3.23013
     26       0.00000          -0.033264           -0.90517
     27       0.00000          -0.003779           -0.10284
     28       0.00000           0.016725            0.45512
     29       0.00000           0.033806            0.91991
     30       0.00000           0.054884            1.49348
     31       0.00000           0.063218            1.72025
     32       0.00000           0.075494            2.05430
     33       0.00000           0.079802            2.17151
     34       0.00000           0.108516            2.95286
     35       0.00000           0.126185            3.43366
     36       0.00000           0.161063            4.38275
     37       0.00000           0.183361            4.98951
     38       0.00000           0.224865            6.11888
     39       0.00000           0.236864            6.44538
     40       0.00000           0.264151            7.18791
     41       0.00000           0.297890            8.10600
     42       0.00000           0.309112            8.41135
     43       0.00000           0.334402            9.09955
     44       0.00000           0.348325            9.47840
     45       0.00000           0.376652           10.24922
     46       0.00000           0.396847           10.79877
     47       0.00000           0.427396           11.63003
     48       0.00000           0.446049           12.13761
     49       0.00000           0.463142           12.60274
     50       0.00000           0.503969           13.71369
     51       0.00000           0.554554           15.09020
     52       0.00000           0.566500           15.41524
     53       0.00000           0.589140           16.03131

  Highest occupied state (VBM) at     -8.45857148 eV
  | Occupation number:      2.00000000

  Lowest unoccupied state (CBM) at    -3.23013103 eV
  | Occupation number:      0.00000000

  Overall HOMO-LUMO gap:      5.22844045 eV.

  Total energy components:
  | Sum of eigenvalues            :        -185.44885896 Ha       -5046.32020633 eV
  | XC energy correction          :         -42.11787593 Ha       -1146.08571614 eV
  | XC potential correction       :          54.14813684 Ha        1473.44577162 eV
  | Free-atom electrostatic energy:        -146.84614526 Ha       -3995.88692097 eV
  | Hartree energy correction     :          -3.32331192 Ha         -90.43191852 eV
  | vdW energy correction         :           0.00000000 Ha           0.00000000 eV
  | Entropy correction            :           0.00000000 Ha           0.00000000 eV
  | ---------------------------
  | Total energy                  :        -323.58805523 Ha       -8805.27899035 eV
  | Total energy, T -> 0          :        -323.58805523 Ha       -8805.27899035 eV  <-- do not rely on this value for anything but (periodic) metals
  | Electronic free energy        :        -323.58805523 Ha       -8805.27899035 eV

  Derived energy quantities:
  | Kinetic energy                :         322.27673165 Ha        8769.59606020 eV
  | Electrostatic energy          :        -603.74691094 Ha      -16428.78933441 eV
  | Energy correction for multipole
  | error in Hartree potential    :           0.01224195 Ha           0.33312035 eV
  | Sum of eigenvalues per atom                           :        -388.17847741 eV
  | Total energy (T->0) per atom                          :        -677.32915310 eV  <-- do not rely on this value for anything but (periodic) metals
  | Electronic free energy per atom                       :        -677.32915310 eV

  Self-consistency convergence accuracy:
  | Change of charge density      :  0.5822E+00
  | Change of sum of eigenvalues  :  0.9270E+02 eV
  | Change of total energy        :  0.4957E+01 eV

  End self-consistency iteration #     1       :  max(cpu_time)    wall_clock(cpu1)
  | Time for this iteration                    :        1.209 s           1.210 s
  | Charge density update                      :        0.397 s           0.397 s
  | Density mixing                             :        0.006 s           0.006 s
  | Hartree multipole update                   :        0.009 s           0.010 s
  | Hartree multipole summation                :        0.285 s           0.285 s
  | Integration                                :        0.509 s           0.509 s
  | Solution of K.-S. eqns.                    :        0.002 s           0.003 s
  | Total energy evaluation                    :        0.000 s           0.000 s

  Partial memory accounting:
  | Current value for overall tracked memory usage on task 0  :           0.165 MB
  | Peak value for overall tracked memory usage on task 0     :           0.695 MB after allocating gradient_basis_wave
  | Largest tracked array allocation on task 0 so far         :           0.397 MB  when allocating gradient_basis_wave
  Note:  These values currently only include a subset of arrays which are explicitly tracked.
  The "true" memory usage will be greater.
------------------------------------------------------------

------------------------------------------------------------
          Begin self-consistency iteration #    2

  Date     :  20200805, Time     :  184911.529
------------------------------------------------------------
  Evaluating new KS density.
  Integration grid: deviation in total charge (<rho> - N_e) =   2.842171E-14
  Pulay mixing of updated and previous charge densities.

  Evaluating partitioned Hartree potential by multipole expansion.
  | Analytical far-field extrapolation by fixed multipoles:
  | Hartree multipole sum: apparent total charge =  -0.248645E-03
  Summing up the Hartree potential.
  Time summed over all CPUs for potential: real work        0.283 s, elapsed        0.283 s
  | RMS charge density error from multipole expansion :   0.140476E-01

  Integrating Hamiltonian matrix: batch-based integration.
  Time summed over all CPUs for integration: real work        0.509 s, elapsed        0.509 s

  Updating Kohn-Sham eigenvalues and eigenvectors using ELSI and the ELPA eigensolver.
  Finished Cholesky decomposition
  | Time :     0.000 s
  Finished transformation to standard eigenproblem
  | Time :     0.000 s
  Starting LAPACK eigensolver
  Finished solving standard eigenproblem
  | Time :     0.001 s
  Finished back-transformation of eigenvectors
  | Time :     0.000 s

  Obtaining occupation numbers and chemical potential using ELSI.
  | Chemical potential (Fermi level):    -3.44094150eV
  Highest occupied state (VBM) at     -6.35434917 eV
  | Occupation number:      2.00000000

  Lowest unoccupied state (CBM) at    -2.02430213 eV
  | Occupation number:      0.00000000

  Overall HOMO-LUMO gap:      4.33004704 eV.

  Checking to see if s.c.f. parameters should be adjusted.

  Total energy components:
  | Sum of eigenvalues            :        -181.84308031 Ha       -4948.20197699 eV
  | XC energy correction          :         -42.48066955 Ha       -1155.95783299 eV
  | XC potential correction       :          54.61849449 Ha        1486.24485432 eV
  | Free-atom electrostatic energy:        -146.84614526 Ha       -3995.88692097 eV
  | Hartree energy correction     :          -6.95834410 Ha        -189.34617681 eV
  | vdW energy correction         :           0.00000000 Ha           0.00000000 eV
  | Entropy correction            :           0.00000000 Ha           0.00000000 eV
  | ---------------------------
  | Total energy                  :        -323.50974473 Ha       -8803.14805344 eV
  | Total energy, T -> 0          :        -323.50974473 Ha       -8803.14805344 eV  <-- do not rely on this value for anything but (periodic) metals
  | Electronic free energy        :        -323.50974473 Ha       -8803.14805344 eV

  Derived energy quantities:
  | Kinetic energy                :         323.60880866 Ha        8805.84372001 eV
  | Electrostatic energy          :        -604.63788384 Ha      -16453.03394046 eV
  | Energy correction for multipole
  | error in Hartree potential    :           0.02718289 Ha           0.73968413 eV
  | Sum of eigenvalues per atom                           :        -380.63092131 eV
  | Total energy (T->0) per atom                          :        -677.16523488 eV  <-- do not rely on this value for anything but (periodic) metals
  | Electronic free energy per atom                       :        -677.16523488 eV

  Self-consistency convergence accuracy:
  | Change of charge density      :  0.3636E+00
  | Change of sum of eigenvalues  :  0.9812E+02 eV
  | Change of total energy        :  0.2131E+01 eV

  End self-consistency iteration #     2       :  max(cpu_time)    wall_clock(cpu1)
  | Time for this iteration                    :        1.201 s           1.202 s
  | Charge density update                      :        0.390 s           0.390 s
  | Density mixing                             :        0.007 s           0.008 s
  | Hartree multipole update                   :        0.009 s           0.009 s
  | Hartree multipole summation                :        0.284 s           0.284 s
  | Integration                                :        0.509 s           0.509 s
  | Solution of K.-S. eqns.                    :        0.002 s           0.002 s
  | Total energy evaluation                    :        0.000 s           0.000 s

  Partial memory accounting:
  | Current value for overall tracked memory usage on task 0  :           0.166 MB
  | Peak value for overall tracked memory usage on task 0     :           0.695 MB after allocating gradient_basis_wave
  | Largest tracked array allocation on task 0 so far         :           0.397 MB  when allocating gradient_basis_wave
  Note:  These values currently only include a subset of arrays which are explicitly tracked.
  The "true" memory usage will be greater.
------------------------------------------------------------

------------------------------------------------------------
          Begin self-consistency iteration #    3

  Date     :  20200805, Time     :  184912.732
------------------------------------------------------------
  Evaluating new KS density.
  Integration grid: deviation in total charge (<rho> - N_e) =   4.973799E-14
  Pulay mixing of updated and previous charge densities.

  Evaluating partitioned Hartree potential by multipole expansion.
  | Analytical far-field extrapolation by fixed multipoles:
  | Hartree multipole sum: apparent total charge =  -0.346084E-03
  Summing up the Hartree potential.
  Time summed over all CPUs for potential: real work        0.284 s, elapsed        0.284 s
  | RMS charge density error from multipole expansion :   0.223189E-01

  Integrating Hamiltonian matrix: batch-based integration.
  Time summed over all CPUs for integration: real work        0.512 s, elapsed        0.512 s

  Updating Kohn-Sham eigenvalues and eigenvectors using ELSI and the ELPA eigensolver.
  Finished Cholesky decomposition
  | Time :     0.000 s
  Finished transformation to standard eigenproblem
  | Time :     0.000 s
  Starting LAPACK eigensolver
  Finished solving standard eigenproblem
  | Time :     0.001 s
  Finished back-transformation of eigenvectors
  | Time :     0.000 s

  Obtaining occupation numbers and chemical potential using ELSI.
  | Chemical potential (Fermi level):    -2.73791961eV
  Highest occupied state (VBM) at     -5.69272628 eV
  | Occupation number:      2.00000000

  Lowest unoccupied state (CBM) at    -1.34900195 eV
  | Occupation number:      0.00000000

  Overall HOMO-LUMO gap:      4.34372433 eV.

  Total energy components:
  | Sum of eigenvalues            :        -180.55806434 Ha       -4913.23491331 eV
  | XC energy correction          :         -42.63139618 Ha       -1160.05931329 eV
  | XC potential correction       :          54.81067653 Ha        1491.47439373 eV
  | Free-atom electrostatic energy:        -146.84614526 Ha       -3995.88692097 eV
  | Hartree energy correction     :          -8.27248326 Ha        -225.10572287 eV
  | vdW energy correction         :           0.00000000 Ha           0.00000000 eV
  | Entropy correction            :           0.00000000 Ha           0.00000000 eV
  | ---------------------------
  | Total energy                  :        -323.49741252 Ha       -8802.81247672 eV
  | Total energy, T -> 0          :        -323.49741252 Ha       -8802.81247672 eV  <-- do not rely on this value for anything but (periodic) metals
  | Electronic free energy        :        -323.49741252 Ha       -8802.81247672 eV

  Derived energy quantities:
  | Kinetic energy                :         323.17082090 Ha        8793.92546677 eV
  | Electrostatic energy          :        -604.03683724 Ha      -16436.67863020 eV
  | Energy correction for multipole
  | error in Hartree potential    :           0.03870748 Ha           1.05328410 eV
  | Sum of eigenvalues per atom                           :        -377.94114718 eV
  | Total energy (T->0) per atom                          :        -677.13942129 eV  <-- do not rely on this value for anything but (periodic) metals
  | Electronic free energy per atom                       :        -677.13942129 eV

  Self-consistency convergence accuracy:
  | Change of charge density      :  0.2020E+00
  | Change of sum of eigenvalues  :  0.3497E+02 eV
  | Change of total energy        :  0.3356E+00 eV

  End self-consistency iteration #     3       :  max(cpu_time)    wall_clock(cpu1)
  | Time for this iteration                    :        1.207 s           1.209 s
  | Charge density update                      :        0.390 s           0.391 s
  | Density mixing                             :        0.009 s           0.009 s
  | Hartree multipole update                   :        0.009 s           0.009 s
  | Hartree multipole summation                :        0.284 s           0.284 s
  | Integration                                :        0.512 s           0.513 s
  | Solution of K.-S. eqns.                    :        0.002 s           0.002 s
  | Total energy evaluation                    :        0.000 s           0.000 s

  Partial memory accounting:
  | Current value for overall tracked memory usage on task 0  :           0.166 MB
  | Peak value for overall tracked memory usage on task 0     :           0.695 MB after allocating gradient_basis_wave
  | Largest tracked array allocation on task 0 so far         :           0.397 MB  when allocating gradient_basis_wave
  Note:  These values currently only include a subset of arrays which are explicitly tracked.
  The "true" memory usage will be greater.
------------------------------------------------------------

------------------------------------------------------------
          Begin self-consistency iteration #    4

  Date     :  20200805, Time     :  184913.941
------------------------------------------------------------
  Evaluating new KS density.
  Integration grid: deviation in total charge (<rho> - N_e) =   1.421085E-14
  Pulay mixing of updated and previous charge densities.

  Evaluating partitioned Hartree potential by multipole expansion.
  | Analytical far-field extrapolation by fixed multipoles:
  | Hartree multipole sum: apparent total charge =  -0.377172E-03
  Summing up the Hartree potential.
  Time summed over all CPUs for potential: real work        0.284 s, elapsed        0.284 s
  | RMS charge density error from multipole expansion :   0.256483E-01

  Integrating Hamiltonian matrix: batch-based integration.
  Time summed over all CPUs for integration: real work        0.512 s, elapsed        0.512 s

  Updating Kohn-Sham eigenvalues and eigenvectors using ELSI and the ELPA eigensolver.
  Finished Cholesky decomposition
  | Time :     0.000 s
  Finished transformation to standard eigenproblem
  | Time :     0.000 s
  Starting LAPACK eigensolver
  Finished solving standard eigenproblem
  | Time :     0.002 s
  Finished back-transformation of eigenvectors
  | Time :     0.000 s

  Obtaining occupation numbers and chemical potential using ELSI.
  | Chemical potential (Fermi level):    -2.62721152eV
  Highest occupied state (VBM) at     -5.51430235 eV
  | Occupation number:      2.00000000

  Lowest unoccupied state (CBM) at    -1.27219595 eV
  | Occupation number:      0.00000000

  Overall HOMO-LUMO gap:      4.24210641 eV.

  Total energy components:
  | Sum of eigenvalues            :        -180.40617911 Ha       -4909.10190606 eV
  | XC energy correction          :         -42.66850759 Ha       -1161.06916607 eV
  | XC potential correction       :          54.85748191 Ha        1492.74803299 eV
  | Free-atom electrostatic energy:        -146.84614526 Ha       -3995.88692097 eV
  | Hartree energy correction     :          -8.43330761 Ha        -229.48197591 eV
  | vdW energy correction         :           0.00000000 Ha           0.00000000 eV
  | Entropy correction            :           0.00000000 Ha           0.00000000 eV
  | ---------------------------
  | Total energy                  :        -323.49665766 Ha       -8802.79193602 eV
  | Total energy, T -> 0          :        -323.49665766 Ha       -8802.79193602 eV  <-- do not rely on this value for anything but (periodic) metals
  | Electronic free energy        :        -323.49665766 Ha       -8802.79193602 eV

  Derived energy quantities:
  | Kinetic energy                :         322.81054718 Ha        8784.12191992 eV
  | Electrostatic energy          :        -603.63869725 Ha      -16425.84468987 eV
  | Energy correction for multipole
  | error in Hartree potential    :           0.04284005 Ha           1.16573707 eV
  | Sum of eigenvalues per atom                           :        -377.62322354 eV
  | Total energy (T->0) per atom                          :        -677.13784123 eV  <-- do not rely on this value for anything but (periodic) metals
  | Electronic free energy per atom                       :        -677.13784123 eV

  Self-consistency convergence accuracy:
  | Change of charge density      :  0.6142E-01
  | Change of sum of eigenvalues  :  0.4133E+01 eV
  | Change of total energy        :  0.2054E-01 eV

  End self-consistency iteration #     4       :  max(cpu_time)    wall_clock(cpu1)
  | Time for this iteration                    :        1.208 s           1.210 s
  | Charge density update                      :        0.390 s           0.391 s
  | Density mixing                             :        0.010 s           0.010 s
  | Hartree multipole update                   :        0.009 s           0.009 s
  | Hartree multipole summation                :        0.284 s           0.285 s
  | Integration                                :        0.512 s           0.512 s
  | Solution of K.-S. eqns.                    :        0.002 s           0.003 s
  | Total energy evaluation                    :        0.000 s           0.000 s

  Partial memory accounting:
  | Current value for overall tracked memory usage on task 0  :           0.166 MB
  | Peak value for overall tracked memory usage on task 0     :           0.696 MB after allocating gradient_basis_wave
  | Largest tracked array allocation on task 0 so far         :           0.397 MB  when allocating gradient_basis_wave
  Note:  These values currently only include a subset of arrays which are explicitly tracked.
  The "true" memory usage will be greater.
------------------------------------------------------------

------------------------------------------------------------
          Begin self-consistency iteration #    5

  Date     :  20200805, Time     :  184915.155
------------------------------------------------------------
  Evaluating new KS density.
  Integration grid: deviation in total charge (<rho> - N_e) =   4.973799E-14
  Pulay mixing of updated and previous charge densities.

  Evaluating partitioned Hartree potential by multipole expansion.
  | Analytical far-field extrapolation by fixed multipoles:
  | Hartree multipole sum: apparent total charge =  -0.371255E-03
  Summing up the Hartree potential.
  Time summed over all CPUs for potential: real work        0.284 s, elapsed        0.284 s
  | RMS charge density error from multipole expansion :   0.253992E-01

  Integrating Hamiltonian matrix: batch-based integration.
  Time summed over all CPUs for integration: real work        0.509 s, elapsed        0.509 s

  Updating Kohn-Sham eigenvalues and eigenvectors using ELSI and the ELPA eigensolver.
  Finished Cholesky decomposition
  | Time :     0.000 s
  Finished transformation to standard eigenproblem
  | Time :     0.000 s
  Starting LAPACK eigensolver
  Finished solving standard eigenproblem
  | Time :     0.001 s
  Finished back-transformation of eigenvectors
  | Time :     0.000 s

  Obtaining occupation numbers and chemical potential using ELSI.
  | Chemical potential (Fermi level):    -2.68751241eV
  Highest occupied state (VBM) at     -5.59443913 eV
  | Occupation number:      2.00000000

  Lowest unoccupied state (CBM) at    -1.34759579 eV
  | Occupation number:      0.00000000

  Overall HOMO-LUMO gap:      4.24684334 eV.

  Total energy components:
  | Sum of eigenvalues            :        -180.58664777 Ha       -4914.01270806 eV
  | XC energy correction          :         -42.64606812 Ha       -1160.45855715 eV
  | XC potential correction       :          54.82838470 Ha        1491.95625746 eV
  | Free-atom electrostatic energy:        -146.84614526 Ha       -3995.88692097 eV
  | Hartree energy correction     :          -8.24587991 Ha        -224.38180880 eV
  | vdW energy correction         :           0.00000000 Ha           0.00000000 eV
  | Entropy correction            :           0.00000000 Ha           0.00000000 eV
  | ---------------------------
  | Total energy                  :        -323.49635637 Ha       -8802.78373753 eV
  | Total energy, T -> 0          :        -323.49635637 Ha       -8802.78373753 eV  <-- do not rely on this value for anything but (periodic) metals
  | Electronic free energy        :        -323.49635637 Ha       -8802.78373753 eV

  Derived energy quantities:
  | Kinetic energy                :         322.71056538 Ha        8781.40127679 eV
  | Electrostatic energy          :        -603.56085363 Ha      -16423.72645716 eV
  | Energy correction for multipole
  | error in Hartree potential    :           0.04221180 Ha           1.14864149 eV
  | Sum of eigenvalues per atom                           :        -378.00097754 eV
  | Total energy (T->0) per atom                          :        -677.13721058 eV  <-- do not rely on this value for anything but (periodic) metals
  | Electronic free energy per atom                       :        -677.13721058 eV

  Self-consistency convergence accuracy:
  | Change of charge density      :  0.2093E-01
  | Change of sum of eigenvalues  : -0.4911E+01 eV
  | Change of total energy        :  0.8198E-02 eV

  End self-consistency iteration #     5       :  max(cpu_time)    wall_clock(cpu1)
  | Time for this iteration                    :        1.207 s           1.208 s
  | Charge density update                      :        0.391 s           0.391 s
  | Density mixing                             :        0.011 s           0.011 s
  | Hartree multipole update                   :        0.009 s           0.010 s
  | Hartree multipole summation                :        0.284 s           0.284 s
  | Integration                                :        0.509 s           0.510 s
  | Solution of K.-S. eqns.                    :        0.002 s           0.002 s
  | Total energy evaluation                    :        0.000 s           0.000 s

  Partial memory accounting:
  | Current value for overall tracked memory usage on task 0  :           0.166 MB
  | Peak value for overall tracked memory usage on task 0     :           0.696 MB after allocating gradient_basis_wave
  | Largest tracked array allocation on task 0 so far         :           0.397 MB  when allocating gradient_basis_wave
  Note:  These values currently only include a subset of arrays which are explicitly tracked.
  The "true" memory usage will be greater.
------------------------------------------------------------

------------------------------------------------------------
          Begin self-consistency iteration #    6

  Date     :  20200805, Time     :  184916.366
------------------------------------------------------------
  Evaluating new KS density.
  Integration grid: deviation in total charge (<rho> - N_e) =   4.263256E-14
  Pulay mixing of updated and previous charge densities.

  Evaluating partitioned Hartree potential by multipole expansion.
  | Analytical far-field extrapolation by fixed multipoles:
  | Hartree multipole sum: apparent total charge =  -0.373894E-03
  Summing up the Hartree potential.
  Time summed over all CPUs for potential: real work        0.286 s, elapsed        0.286 s
  | RMS charge density error from multipole expansion :   0.257989E-01

  Integrating Hamiltonian matrix: batch-based integration.
  Time summed over all CPUs for integration: real work        0.505 s, elapsed        0.505 s

  Updating Kohn-Sham eigenvalues and eigenvectors using ELSI and the ELPA eigensolver.
  Finished Cholesky decomposition
  | Time :     0.000 s
  Finished transformation to standard eigenproblem
  | Time :     0.000 s
  Starting LAPACK eigensolver
  Finished solving standard eigenproblem
  | Time :     0.002 s
  Finished back-transformation of eigenvectors
  | Time :     0.000 s

  Obtaining occupation numbers and chemical potential using ELSI.
  | Chemical potential (Fermi level):    -2.69647922eV
  Highest occupied state (VBM) at     -5.57042813 eV
  | Occupation number:      2.00000000

  Lowest unoccupied state (CBM) at    -1.37067128 eV
  | Occupation number:      0.00000000

  Overall HOMO-LUMO gap:      4.19975685 eV.

  Total energy components:
  | Sum of eigenvalues            :        -180.61236740 Ha       -4914.71257479 eV
  | XC energy correction          :         -42.64183135 Ha       -1160.34326878 eV
  | XC potential correction       :          54.82287281 Ha        1491.80627154 eV
  | Free-atom electrostatic energy:        -146.84614526 Ha       -3995.88692097 eV
  | Hartree energy correction     :          -8.21882811 Ha        -223.64569189 eV
  | vdW energy correction         :           0.00000000 Ha           0.00000000 eV
  | Entropy correction            :           0.00000000 Ha           0.00000000 eV
  | ---------------------------
  | Total energy                  :        -323.49629931 Ha       -8802.78218489 eV
  | Total energy, T -> 0          :        -323.49629931 Ha       -8802.78218489 eV  <-- do not rely on this value for anything but (periodic) metals
  | Electronic free energy        :        -323.49629931 Ha       -8802.78218489 eV

  Derived energy quantities:
  | Kinetic energy                :         322.61693782 Ha        8778.85354121 eV
  | Electrostatic energy          :        -603.47140578 Ha      -16421.29245732 eV
  | Energy correction for multipole
  | error in Hartree potential    :           0.04248944 Ha           1.15619640 eV
  | Sum of eigenvalues per atom                           :        -378.05481345 eV
  | Total energy (T->0) per atom                          :        -677.13709115 eV  <-- do not rely on this value for anything but (periodic) metals
  | Electronic free energy per atom                       :        -677.13709115 eV

  Self-consistency convergence accuracy:
  | Change of charge density      :  0.1075E-01
  | Change of sum of eigenvalues  : -0.6999E+00 eV
  | Change of total energy        :  0.1553E-02 eV

  End self-consistency iteration #     6       :  max(cpu_time)    wall_clock(cpu1)
  | Time for this iteration                    :        1.206 s           1.208 s
  | Charge density update                      :        0.391 s           0.392 s
  | Density mixing                             :        0.013 s           0.013 s
  | Hartree multipole update                   :        0.009 s           0.009 s
  | Hartree multipole summation                :        0.287 s           0.287 s
  | Integration                                :        0.505 s           0.505 s
  | Solution of K.-S. eqns.                    :        0.002 s           0.002 s
  | Total energy evaluation                    :        0.000 s           0.000 s

  Partial memory accounting:
  | Current value for overall tracked memory usage on task 0  :           0.166 MB
  | Peak value for overall tracked memory usage on task 0     :           0.696 MB after allocating gradient_basis_wave
  | Largest tracked array allocation on task 0 so far         :           0.397 MB  when allocating gradient_basis_wave
  Note:  These values currently only include a subset of arrays which are explicitly tracked.
  The "true" memory usage will be greater.
------------------------------------------------------------

------------------------------------------------------------
          Begin self-consistency iteration #    7

  Date     :  20200805, Time     :  184917.577
------------------------------------------------------------
  Evaluating new KS density.
  Integration grid: deviation in total charge (<rho> - N_e) =  -7.105427E-15
  Pulay mixing of updated and previous charge densities.

  Evaluating partitioned Hartree potential by multipole expansion.
  | Analytical far-field extrapolation by fixed multipoles:
  | Hartree multipole sum: apparent total charge =  -0.375195E-03
  Summing up the Hartree potential.
  Time summed over all CPUs for potential: real work        0.287 s, elapsed        0.287 s
  | RMS charge density error from multipole expansion :   0.259518E-01

  Integrating Hamiltonian matrix: batch-based integration.
  Time summed over all CPUs for integration: real work        0.510 s, elapsed        0.510 s

  Updating Kohn-Sham eigenvalues and eigenvectors using ELSI and the ELPA eigensolver.
  Finished Cholesky decomposition
  | Time :     0.000 s
  Finished transformation to standard eigenproblem
  | Time :     0.000 s
  Starting LAPACK eigensolver
  Finished solving standard eigenproblem
  | Time :     0.002 s
  Finished back-transformation of eigenvectors
  | Time :     0.000 s

[...]
  |   Hirshfeld dipole moment :      0.06281287
  |   Hirshfeld second moments:      0.00413940      -0.02176475      -0.01685561
  |                                 -0.02176475      -0.00669102       0.01170630
  |                                 -0.01685561       0.01170630      -0.01706224
  ----------------------------------------------------------------------
  | Atom    12: O
  |   Hirshfeld charge        :     -0.13162028
  |   Free atom volume        :     23.61338643
  |   Hirshfeld volume        :     20.42416567
  |   Hirshfeld dipole vector :      0.02095085       0.00531459       0.01992697
  |   Hirshfeld dipole moment :      0.02939842
  |   Hirshfeld second moments:      0.05562575      -0.00894408      -0.00700373
  |                                 -0.00894408       0.11146378      -0.00708826
  |                                 -0.00700373      -0.00708826       0.04914855
  ----------------------------------------------------------------------
  | Atom    13: H
  |   Hirshfeld charge        :      0.17929440
  |   Free atom volume        :      9.95071624
  |   Hirshfeld volume        :      6.22672435
  |   Hirshfeld dipole vector :      0.03175157      -0.11187870       0.02118245
  |   Hirshfeld dipole moment :      0.11821041
  |   Hirshfeld second moments:      0.11764922       0.00119605      -0.01210048
  |                                  0.00119605       0.12549292      -0.00003812
  |                                 -0.01210048      -0.00003812       0.09201349
  ----------------------------------------------------------------------


  Total energy components:
  | Sum of eigenvalues            :        -180.60227688 Ha       -4914.43799779 eV
  | XC energy correction          :         -42.63963438 Ha       -1160.28348595 eV
  | XC potential correction       :          54.82011138 Ha        1491.73112920 eV
  | Free-atom electrostatic energy:        -146.84614526 Ha       -3995.88692097 eV
  | Hartree energy correction     :          -8.22833485 Ha        -223.90438351 eV
  | vdW energy correction         :          -0.00325181 Ha          -0.08848634 eV
  | Entropy correction            :           0.00000000 Ha           0.00000000 eV
  | ---------------------------
  | Total energy                  :        -323.49953180 Ha       -8802.87014536 eV
  | Total energy, T -> 0          :        -323.49953180 Ha       -8802.87014536 eV  <-- do not rely on this value for anything but (periodic) metals
  | Electronic free energy        :        -323.49953180 Ha       -8802.87014536 eV

  Derived energy quantities:
  | Kinetic energy                :         322.57862730 Ha        8777.81105907 eV
  | Electrostatic energy          :        -603.43527291 Ha      -16420.30923214 eV
  | Energy correction for multipole
  | error in Hartree potential    :           0.04257486 Ha           1.15852101 eV
  | Sum of eigenvalues per atom                           :        -378.03369214 eV
  | Total energy (T->0) per atom                          :        -677.14385734 eV  <-- do not rely on this value for anything but (periodic) metals
  | Electronic free energy per atom                       :        -677.14385734 eV

  atomic forces [eV/Ang]:
  -----------------------
  atom #    1
   Hellmann-Feynman              :  0.858484E-01  0.399405E+00  0.741269E+00
   Ionic forces                  :  0.000000E+00  0.000000E+00  0.000000E+00
   Multipole                     :  0.242774E+00  0.193418E+00 -0.259660E+00
   Pulay + GGA                   : -0.106551E+01 -0.480210E+00 -0.102795E+01
   Van der Waals                 :  0.200184E-02  0.237375E-02 -0.162200E-02
   ----------------------------------------------------------------
   Total forces(   1)            : -0.734891E+00  0.114987E+00 -0.547964E+00
  atom #    2
   Hellmann-Feynman              :  0.306167E+00 -0.831941E-01  0.227107E+00
   Ionic forces                  :  0.000000E+00  0.000000E+00  0.000000E+00
   Multipole                     :  0.170530E+00  0.159302E-01 -0.588086E-02
   Pulay + GGA                   : -0.124091E+00  0.145737E-01  0.302834E-01
   Van der Waals                 :  0.702612E-02 -0.426956E-02 -0.399651E-02
   ----------------------------------------------------------------
   Total forces(   2)            :  0.359633E+00 -0.569598E-01  0.247513E+00
  atom #    3
   Hellmann-Feynman              : -0.810360E+01  0.804141E+01 -0.237581E+00
   Ionic forces                  :  0.000000E+00  0.000000E+00  0.000000E+00
   Multipole                     : -0.147472E+00  0.222783E+00 -0.108842E+01
   Pulay + GGA                   :  0.837317E+01 -0.799235E+01  0.186183E+01
   Van der Waals                 :  0.322861E-02 -0.802691E-02 -0.646557E-02
   ----------------------------------------------------------------
   Total forces(   3)            :  0.125333E+00  0.263813E+00  0.529365E+00
  atom #    4
   Hellmann-Feynman              : -0.366234E-02 -0.224880E+00 -0.141007E+00
   Ionic forces                  :  0.000000E+00  0.000000E+00  0.000000E+00
   Multipole                     :  0.290571E-01 -0.392050E-03 -0.104316E+00
   Pulay + GGA                   : -0.194380E+00  0.377951E-01  0.120421E+00
   Van der Waals                 : -0.352937E-02 -0.119821E-02  0.577261E-02
   ----------------------------------------------------------------
   Total forces(   4)            : -0.172514E+00 -0.188675E+00 -0.119129E+00
  atom #    5
   Hellmann-Feynman              :  0.142138E+00 -0.210665E+00 -0.287423E+00
   Ionic forces                  :  0.000000E+00  0.000000E+00  0.000000E+00
   Multipole                     : -0.388269E-01 -0.699898E-01 -0.806564E-01
   Pulay + GGA                   :  0.919566E-02  0.224599E+00  0.662582E-01
   Van der Waals                 : -0.192669E-02  0.144577E-02  0.370799E-02
   ----------------------------------------------------------------
   Total forces(   5)            :  0.110580E+00 -0.546106E-01 -0.298113E+00
  atom #    6
   Hellmann-Feynman              : -0.366023E-01 -0.531359E+00  0.576233E+00
   Ionic forces                  :  0.000000E+00  0.000000E+00  0.000000E+00
   Multipole                     : -0.993355E-01  0.629371E+00  0.237563E+00
   Pulay + GGA                   :  0.285689E+00 -0.427429E+00 -0.599346E+00
   Van der Waals                 : -0.340773E-02  0.529866E-02 -0.360184E-02
   ----------------------------------------------------------------
   Total forces(   6)            :  0.146343E+00 -0.324119E+00  0.210847E+00
  atom #    7
   Hellmann-Feynman              : -0.190238E+00 -0.530359E-01 -0.687084E-01
   Ionic forces                  :  0.000000E+00  0.000000E+00  0.000000E+00
   Multipole                     : -0.120754E+00  0.502825E-01  0.242443E-01
   Pulay + GGA                   :  0.121993E+00  0.235555E-02 -0.284195E-01
   Van der Waals                 : -0.120681E-02  0.119513E-02  0.282826E-02
   ----------------------------------------------------------------
   Total forces(   7)            : -0.190206E+00  0.797282E-03 -0.700552E-01
  atom #    8
   Hellmann-Feynman              :  0.982120E-01 -0.239889E-01  0.178907E+00
   Ionic forces                  :  0.000000E+00  0.000000E+00  0.000000E+00
   Multipole                     :  0.145416E-01  0.601991E-01  0.122043E+00
   Pulay + GGA                   : -0.408976E-01 -0.323678E-01 -0.817006E-01
   Van der Waals                 : -0.253018E-02  0.115088E-01  0.163483E-02
   ----------------------------------------------------------------
   Total forces(   8)            :  0.693257E-01  0.153512E-01  0.220884E+00
  atom #    9
   Hellmann-Feynman              :  0.103286E+00  0.209441E-01 -0.182947E+00
   Ionic forces                  :  0.000000E+00  0.000000E+00  0.000000E+00
   Multipole                     :  0.137295E-01  0.126481E+00 -0.138984E-01
   Pulay + GGA                   : -0.630043E-01 -0.896677E-01  0.388710E-01
   Van der Waals                 : -0.172200E-02  0.221773E-02  0.266789E-02
   ----------------------------------------------------------------
   Total forces(   9)            :  0.522892E-01  0.599753E-01 -0.155306E+00
  atom #   10
   Hellmann-Feynman              :  0.289496E+01  0.566452E+01  0.105722E+01
   Ionic forces                  :  0.000000E+00  0.000000E+00  0.000000E+00
   Multipole                     :  0.333805E-01 -0.108598E+00  0.188625E+00
   Pulay + GGA                   : -0.192835E+01 -0.288012E+01 -0.203815E+00
   Van der Waals                 :  0.354533E-02 -0.116431E-01 -0.116278E-02
   ----------------------------------------------------------------
   Total forces(  10)            :  0.100354E+01  0.266416E+01  0.104087E+01
  atom #   11
   Hellmann-Feynman              :  0.416512E+01 -0.234394E+01  0.142168E+02
   Ionic forces                  :  0.000000E+00  0.000000E+00  0.000000E+00
   Multipole                     :  0.153410E+00 -0.618209E+00  0.739330E+00
   Pulay + GGA                   : -0.321615E+01  0.329571E+01 -0.135963E+02
   Van der Waals                 : -0.353965E-02 -0.117895E-01  0.959952E-03
   ----------------------------------------------------------------
   Total forces(  11)            :  0.109884E+01  0.321766E+00  0.136074E+01
  atom #   12
   Hellmann-Feynman              : -0.900029E+01  0.160639E+01 -0.135000E+02
   Ionic forces                  :  0.000000E+00  0.000000E+00  0.000000E+00
   Multipole                     : -0.995219E+00 -0.998386E+00 -0.581512E+00
   Pulay + GGA                   :  0.898032E+01 -0.255848E+01  0.114760E+02
   Van der Waals                 :  0.163286E-02  0.716192E-02  0.325762E-02
   ----------------------------------------------------------------
   Total forces(  12)            : -0.101355E+01 -0.194332E+01 -0.260224E+01
  atom #   13
   Hellmann-Feynman              : -0.793212E+00 -0.112170E+01  0.284212E+00
   Ionic forces                  :  0.000000E+00  0.000000E+00  0.000000E+00
   Multipole                     :  0.463857E-01 -0.833922E-01  0.282090E-01
   Pulay + GGA                   : -0.107621E+00  0.320948E+00 -0.127859E+00
   Van der Waals                 :  0.427664E-03  0.572552E-02 -0.398046E-02
   ----------------------------------------------------------------
   Total forces(  13)            : -0.854019E+00 -0.878421E+00  0.180581E+00

  Timings for VdW correction (Tkatchenko-Scheffler 2009 or later):
  | CPU time:        0.090 s, Wall clock time:        0.091 s.
  Removing unitary transformations (pure translations, rotations) from forces on atoms.
  Atomic forces before filtering:
  | Net force on center of mass :   0.690050E-03 -0.525870E-02 -0.200142E-02 eV/A
  | Net torque on center of mass:  -0.771364E-02  0.425866E-02 -0.455746E-02 eV
  Atomic forces after filtering:
  | Net force on center of mass :  -0.356812E-15 -0.178406E-15  0.178406E-15 eV/A
  | Net torque on center of mass:   0.566451E-15  0.472042E-15  0.000000E+00 eV

  Energy and forces in a compact form:
  | Total energy uncorrected      :         -0.880287014536313E+04 eV
  | Total energy corrected        :         -0.880287014536313E+04 eV  <-- do not rely on this value for anything but (periodic) metals
  | Electronic free energy        :         -0.880287014536313E+04 eV
  Total atomic forces (unitary forces cleaned) [eV/Ang]:
  |   1         -0.734950546383917E+00          0.115459032841460E+00         -0.547714168392886E+00
  |   2          0.359572951942221E+00         -0.563419434747306E-01          0.247949152465090E+00
  |   3          0.125513648765355E+00          0.264453210374879E+00          0.529532716924476E+00
  |   4         -0.172249242958532E+00         -0.187827388153782E+00         -0.118799128348005E+00
  |   5          0.110915146128856E+00         -0.539940426624015E-01         -0.298166177999045E+00
  |   6          0.145990995376541E+00         -0.323831560480894E+00          0.211219593718894E+00
  |   7         -0.190564015830282E+00          0.936467542450466E-03         -0.698648423627801E-01
  |   8          0.687960934975048E-01          0.155172211956727E-01          0.221320321515144E+00
  |   9          0.519035818526885E-01          0.603932265232689E-01         -0.154724734271589E+00
  |  10          0.100352023970140E+01          0.266445358677879E+01          0.104084071141721E+01
  |  11          0.109866193086859E+01          0.321916338061003E+00          0.136071878905330E+01
  |  12         -0.101334251227596E+01         -0.194300398316478E+01         -0.260252630890785E+01
  |  13         -0.853768270684467E+00         -0.878130165380938E+00          0.180214075188040E+00

  ------------------------------------ 
  Start decomposition of the XC Energy 
  ------------------------------------ 
  X and C from original XC functional choice 
  Hartree-Fock Energy :          0.000000000 Ha              0.000000000 eV
  X Energy            :        -41.039000037 Ha          -1116.728009505 eV
  C Energy            :         -1.600634339 Ha            -43.555476446 eV
  Total XC Energy     :        -42.639634376 Ha          -1160.283485951 eV
  ------------------------------------ 
  LDA X and C from self-consistent density 
  X Energy LDA        :        -37.258261736 Ha          -1013.848885888 eV
  C Energy LDA        :         -3.138664282 Ha            -85.407400594 eV
  ------------------------------------ 
  End decomposition of the XC Energy 
  ------------------------------------ 

------------------------------------------------------------

------------------------------------------------------------------------------
  Final output of selected total energy values:

  The following output summarizes some interesting total energy values
  at the end of a run (AFTER all relaxation, molecular dynamics, etc.).

  | Total energy of the DFT / Hartree-Fock s.c.f. calculation      :          -8802.870145363 eV
  | Final zero-broadening corrected energy (caution - metals only) :          -8802.870145363 eV
  | For reference only, the value of 1 Hartree used in FHI-aims is :             27.211384500 eV

  Before relying on these values, please be sure to understand exactly which
  total energy value is referred to by a given number. Different objects may
  all carry the same name 'total energy'. Definitions:

  Total energy of the DFT / Hartree-Fock s.c.f. calculation:
  | Note that this energy does not include ANY quantities calculated after the
  | s.c.f. cycle, in particular not ANY RPA, MP2, etc. many-body perturbation terms.

  Final zero-broadening corrected energy:
  | For metallic systems only, a broadening of the occupation numbers at the Fermi
  | level can be extrapolated back to zero broadening by an electron-gas inspired
  | formula. For all systems that are not real metals, this value can be
  | meaningless and should be avoided.

------------------------------------------------------------------------------
  Methods described in the following list of references were used in this FHI-aims run.
  If you publish the results, please make sure to cite these reference if they apply.
  FHI-aims is an academic code, and for our developers (often, Ph.D. students
  and postdocs), scientific credit in the community is essential.
  Thank you for helping us!

  For any use of FHI-aims, please cite:

    Volker Blum, Ralf Gehrke, Felix Hanke, Paula Havu, Ville Havu,
    Xinguo Ren, Karsten Reuter, and Matthias Scheffler
    'Ab initio molecular simulations with numeric atom-centered orbitals'
    Computer Physics Communications 180, 2175-2196 (2009)
    http://dx.doi.org/10.1016/j.cpc.2009.06.022


  The scalable eigensolver library ELPA was used in your run.
  ELPA is essential especially for large systems on hundreds or thousands of CPUs.
  For ELPA, please cite:

    Andreas Marek, Volker Blum, Rainer Johanni, Ville Havu, Bruno Lang,
    Thomas Auckenthaler, Alexander Heinecke, Hans-Joachim Bungartz, and Hermann Lederer,
    'The ELPA Library - Scalable Parallel Eigenvalue Solutions
    for Electronic Structure Theory and Computational Science'
    The Journal of Physics: Condensed Matter 26, 213201 (2014).
    http://dx.doi.org/10.1088/0953-8984/26/21/213201


  The ELSI infrastructure was used in your run to solve the Kohn-Sham electronic structure.
  Please check out http://elsi-interchange.org to learn more.
  If scalability is important for your project, please acknowledge ELSI by citing:

    V. W-z. Yu, F. Corsetti, A. Garcia, W. P. Huhn, M. Jacquelin, W. Jia,
    B. Lange, L. Lin, J. Lu, W. Mi, A. Seifitokaldani, A. Vazquez-Mayagoitia,
    C. Yang, H. Yang, and V. Blum
    'ELSI: A unified software interface for Kohn-Sham electronic structure solvers'
    Computer Physics Communications 222, 267-285 (2018).
    http://dx.doi.org/10.1016/j.cpc.2017.09.007


  For the real-space grid partitioning and parallelization used in this calculation, please cite:

    Ville Havu, Volker Blum, Paula Havu, and Matthias Scheffler,
    'Efficient O(N) integration for all-electron electronic structure calculation'
    'using numerically tabulated basis functions'
    Journal of Computational Physics 228, 8367-8379 (2009).
    http://dx.doi.org/10.1016/j.jcp.2009.08.008

  Of course, there are many other important community references, e.g., those cited in the
  above references. Our list is limited to references that describe implementations in the
  FHI-aims code. The reason is purely practical (length of this list) - please credit others as well.

------------------------------------------------------------
          Leaving FHI-aims.
          Date     :  20200805, Time     :  184932.214

          Computational steps:
          | Number of self-consistency cycles          :           16
          | Number of SCF (re)initializations          :            1

          Detailed time accounting                     :  max(cpu_time)    wall_clock(cpu1)
          | Total time                                 :       23.161 s          23.244 s
          | Preparation time                           :        0.156 s           0.158 s
          | Boundary condition initalization           :        0.000 s           0.000 s
          | Grid partitioning                          :        0.114 s           0.114 s
          | Preloading free-atom quantities on grid    :        0.002 s           0.003 s
          | Free-atom superposition energy             :        0.085 s           0.085 s
          | Total time for integrations                :        8.888 s           8.897 s
          | Total time for solution of K.-S. equations :        0.037 s           0.041 s
          | Total time for density & force components  :        7.256 s           7.274 s
          | Total time for mixing                      :        0.226 s           0.229 s
          | Total time for Hartree multipole update    :        0.144 s           0.147 s
          | Total time for Hartree multipole sum       :        5.850 s           5.861 s
          | Total time for total energy evaluation     :        0.003 s           0.003 s
          | Total time for vdW correction              :        0.090 s           0.091 s

          Partial memory accounting:
          | Residual value for overall tracked memory usage across tasks :           0.000 MB (should be 0.000 MB)
          | Peak values for overall tracked memory usage (after allocating hessian_basis_wave):
          |   Minimum:        1.622 MB (on task 1)
          |   Maximum:        1.622 MB (on task 1)
          |   Average:        1.622 MB
          | Largest tracked array allocation (hessian_basis_wave):
          |   Minimum:        0.794 MB (on task 1)
          |   Maximum:        0.794 MB (on task 1)
          |   Average:        0.794 MB
          Note:  These values currently only include a subset of arrays which are explicitly tracked.
          The "true" memory usage will be greater.

          Have a nice day.
------------------------------------------------------------
