  MPI-parallelism will be employed.
------------------------------------------------------------
          Invoking FHI-aims ...
          Version 171221_1
          Compiled on 2019/09/09 at 14:39:39 on host puhti-login2.bullx.

          When using FHI-aims, please cite the following reference:

          Volker Blum, Ralf Gehrke, Felix Hanke, Paula Havu,
          Ville Havu, Xinguo Ren, Karsten Reuter, and Matthias Scheffler,
          'Ab Initio Molecular Simulations with Numeric Atom-Centered Orbitals',
          Computer Physics Communications 180, 2175-2196 (2009)

          For any questions about FHI-aims, please visit the aimsclub website
          with its forums and wiki. Contributions to both the forums and the
          wiki are warmly encouraged - they are for you, and everyone is welcome there.

------------------------------------------------------------



  Date     :  20200710, Time     :  150937.155
  Time zero on CPU 1             :   0.115430000000000E-01  s.
  Internal wall clock time zero  :           363625777.155  s.

  FHI-aims created a unique identifier for this run for later identification
  aims_uuid : DE1B5BA8-DD0C-48C2-AACF-C709CEE1F7BA

  Using        1 parallel tasks.
  Task        0 on host r18c42.bullx reporting.

  Performing system and environment tests:
  | Environment variable OMP_NUM_THREADS correctly set to 1.
  | Stacksize not measured: no C compiler
  | Checking for scalapack...
  | Testing pdtran()...
  | All pdtran() tests passed.

  Obtaining array dimensions for all initial allocations:
  
  -----------------------------------------------------------------------
  Parsing control.in (first pass over file, find array dimensions only).
  The contents of control.in will be repeated verbatim below
  unless switched off by setting 'verbatim_writeout .false.' .
  in the first line of control.in .
  -----------------------------------------------------------------------
  
  #########################################################################################
  #
  #  Volker Blum, FHI 2009 : Test run input file control.in for simple H2O
  #
  #########################################################################################
  #
  #  Physical model
  #
    xc                 pbe
    vdw_correction_hirshfeld
    spin               none
    relativistic       none
    charge             0.
  #
  #  SCF convergence
  #
    occupation_type    gaussian 0.01
    mixer              pulay
      n_max_pulay        10
      charge_mix_param   0.2
    sc_accuracy_rho    1E-5
    sc_accuracy_eev    1E-3
    sc_accuracy_etot   1E-6
    sc_accuracy_forces 1E-4
    sc_iter_limit      100
  #
  #  Relaxation
  #
  #  relax_geometry   bfgs 1.e-3
  #
  ################################################################################
  #
  #  FHI-aims code project
  #  VB, Fritz-Haber Institut, 2009
  #
  #  Suggested "light" defaults for H atom (to be pasted into control.in file)
  #  Be sure to double-check any results obtained with these settings for post-processing,
  #  e.g., with the "tight" defaults and larger basis sets.
  #
  ################################################################################
    species        H
  #     global species definitions
      nucleus             1
      mass                1.00794
  #
      l_hartree           4
  #
      cut_pot             3.5  1.5  1.0
      basis_dep_cutoff    1e-4
  #
      radial_base         24 5.0
      radial_multiplier   1
      angular_grids       specified
        division   0.2421   50
        division   0.3822  110
        division   0.4799  194
        division   0.5341  302
  #      division   0.5626  434
  #      division   0.5922  590
  #      division   0.6542  770
  #      division   0.6868 1202
  #      outer_grid  770
        outer_grid  302
  ################################################################################
  #
  #  Definition of "minimal" basis
  #
  ################################################################################
  #     valence basis states
      valence      1  s   1.
  #     ion occupancy
      ion_occ      1  s   0.5
  ################################################################################
  #
  #  Suggested additional basis functions. For production calculations,
  #  uncomment them one after another (the most important basis functions are
  #  listed first).
  #
  #  Basis constructed for dimers: 0.5 A, 0.7 A, 1.0 A, 1.5 A, 2.5 A
  #
  ################################################################################
  #  "First tier" - improvements: -1014.90 meV to -62.69 meV
       hydro 2 s 2.1
       hydro 2 p 3.5
  #  "Second tier" - improvements: -12.89 meV to -1.83 meV
  #     hydro 1 s 0.85
  #     hydro 2 p 3.7
  #     hydro 2 s 1.2
  #     hydro 3 d 7
  #  "Third tier" - improvements: -0.25 meV to -0.12 meV
  #     hydro 4 f 11.2
  #     hydro 3 p 4.8
  #     hydro 4 d 9
  #     hydro 3 s 3.2
  ################################################################################
  #
  #  FHI-aims code project
  #  VB, Fritz-Haber Institut, 2009
  #
  #  Suggested "light" defaults for C atom (to be pasted into control.in file)
  #  Be sure to double-check any results obtained with these settings for post-processing,
  #  e.g., with the "tight" defaults and larger basis sets.
  #
  ################################################################################
    species        C
  #     global species definitions
      nucleus             6
      mass                12.0107
  #
      l_hartree           4
  #
      cut_pot             3.5  1.5  1.0
      basis_dep_cutoff    1e-4
  #
      radial_base         34 5.0
      radial_multiplier   1
      angular_grids specified
        division   0.3326   50
        division   0.5710  110
        division   0.7727  194
        division   0.8772  302
  #      division   0.9334  434
  #      division   0.9625  590
  #      division   0.9924  770
  #      division   1.0230  974
  #      division   1.4589 1202
  #     outer_grid  974
       outer_grid 302
  ################################################################################
  #
  #  Definition of "minimal" basis
  #
  ################################################################################
  #     valence basis states
      valence      2  s   2.
      valence      2  p   2.
  #     ion occupancy
      ion_occ      2  s   1.
      ion_occ      2  p   1.
  ################################################################################
  #
  #  Suggested additional basis functions. For production calculations,
  #  uncomment them one after another (the most important basis functions are
  #  listed first).
  #
  #  Constructed for dimers: 1.0 A, 1.25 A, 1.5 A, 2.0 A, 3.0 A
  #
  ################################################################################
  #  "First tier" - improvements: -1214.57 meV to -155.61 meV
       hydro 2 p 1.7
       hydro 3 d 6
       hydro 2 s 4.9
  #  "Second tier" - improvements: -67.75 meV to -5.23 meV
  #     hydro 4 f 9.8
  #     hydro 3 p 5.2
  #     hydro 3 s 4.3
  #     hydro 5 g 14.4
  #     hydro 3 d 6.2
  #  "Third tier" - improvements: -2.43 meV to -0.60 meV
  #     hydro 2 p 5.6
  #     hydro 2 s 1.4
  #     hydro 3 d 4.9
  #     hydro 4 f 11.2
  #  "Fourth tier" - improvements: -0.39 meV to -0.18 meV
  #     hydro 2 p 2.1
  #     hydro 5 g 16.4
  #     hydro 4 d 13.2
  #     hydro 3 s 13.6
  #     hydro 4 f 17.6
  #  Further basis functions - improvements: -0.08 meV and below
  #     hydro 3 s 2
  #     hydro 3 p 6
  #     hydro 4 d 20
  ################################################################################
  #
  #  FHI-aims code project
  #  VB, Fritz-Haber Institut, 2009
  #
  #  Suggested "light" defaults for N atom (to be pasted into control.in file)
  #  Be sure to double-check any results obtained with these settings for post-processing,
  #  e.g., with the "tight" defaults and larger basis sets.
  #
  ################################################################################
    species        N
  #     global species definitions
      nucleus             7
      mass                14.0067
  #
      l_hartree           4
  #
      cut_pot             3.5  1.5  1.0
      basis_dep_cutoff    1e-4
  #
      radial_base         35 5.0
      radial_multiplier   1
      angular_grids       specified
        division   0.2599   50
        division   0.4601  110
        division   0.5885  194
        division   0.6503  302
  #      division   0.6939  434
  #      division   0.7396  590
  #      division   0.7632  770
  #      division   0.8122  974
  #      division   1.1604 1202
  #      outer_grid  974
        outer_grid  302
  ################################################################################
  #
  #  Definition of "minimal" basis
  #
  ################################################################################
  #     valence basis states
      valence      2  s   2.
      valence      2  p   3.
  #     ion occupancy
      ion_occ      2  s   1.
      ion_occ      2  p   2.
  ################################################################################
  #
  #  Suggested additional basis functions. For production calculations,
  #  uncomment them one after another (the most important basis functions are
  #  listed first).
  #
  #  Constructed for dimers: 1.0 A, 1.1 A, 1.5 A, 2.0 A, 3.0 A
  #
  ################################################################################
  #  "First tier" - improvements: -1193.42 meV to -220.60 meV
       hydro 2 p 1.8
       hydro 3 d 6.8
       hydro 3 s 5.8
  #  "Second tier" - improvements: -80.21 meV to -6.86 meV
  #     hydro 4 f 10.8
  #     hydro 3 p 5.8
  #     hydro 1 s 0.8
  #     hydro 5 g 16
  #     hydro 3 d 4.9
  #  "Third tier" - improvements: -4.29 meV to -0.53 meV
  #     hydro 3 s 16
  #     ionic 2 p auto
  #     hydro 3 d 6.6
  #     hydro 4 f 11.6
  #  "Fourth tier" - improvements: -0.75 meV to -0.25 meV
  #     hydro 2 p 4.5
  #     hydro 2 s 2.4
  #     hydro 5 g 14.4
  #     hydro 4 d 14.4
  #     hydro 4 f 16.8
  # Further basis functions - -0.21 meV and below
  #     hydro 3 p 14.8
  #     hydro 3 s 4.4
  #     hydro 3 d 19.6
  #     hydro 5 g 12.8
  ################################################################################
  #
  #  FHI-aims code project
  #  VB, Fritz-Haber Institut, 2009
  #
  #  Suggested "light" defaults for O atom (to be pasted into control.in file)
  #  Be sure to double-check any results obtained with these settings for post-processing,
  #  e.g., with the "tight" defaults and larger basis sets.
  #
  ################################################################################
    species        O
  #     global species definitions
      nucleus             8
      mass                15.9994
  #
      l_hartree           4
  #
      cut_pot             3.5  1.5  1.0
      basis_dep_cutoff    1e-4
  #
      radial_base         36 5.0
      radial_multiplier   1
       angular_grids specified
        division   0.2659   50
        division   0.4451  110
        division   0.6052  194
        division   0.7543  302
  #      division   0.8014  434
  #      division   0.8507  590
  #      division   0.8762  770
  #      division   0.9023  974
  #      division   1.2339 1202
  #      outer_grid 974
        outer_grid 302
  ################################################################################
  #
  #  Definition of "minimal" basis
  #
  ################################################################################
  #     valence basis states
      valence      2  s   2.
      valence      2  p   4.
  #     ion occupancy
      ion_occ      2  s   1.
      ion_occ      2  p   3.
  ################################################################################
  #
  #  Suggested additional basis functions. For production calculations,
  #  uncomment them one after another (the most important basis functions are
  #  listed first).
  #
  #  Constructed for dimers: 1.0 A, 1.208 A, 1.5 A, 2.0 A, 3.0 A
  #
  ################################################################################
  #  "First tier" - improvements: -699.05 meV to -159.38 meV
       hydro 2 p 1.8
       hydro 3 d 7.6
       hydro 3 s 6.4
  #  "Second tier" - improvements: -49.91 meV to -5.39 meV
  #     hydro 4 f 11.6
  #     hydro 3 p 6.2
  #     hydro 3 d 5.6
  #     hydro 5 g 17.6
  #     hydro 1 s 0.75
  #  "Third tier" - improvements: -2.83 meV to -0.50 meV
  #     ionic 2 p auto
  #     hydro 4 f 10.8
  #     hydro 4 d 4.7
  #     hydro 2 s 6.8
  #  "Fourth tier" - improvements: -0.40 meV to -0.12 meV
  #     hydro 3 p 5
  #     hydro 3 s 3.3
  #     hydro 5 g 15.6
  #     hydro 4 f 17.6
  #     hydro 4 d 14
  # Further basis functions - -0.08 meV and below
  #     hydro 3 s 2.1
  #     hydro 4 d 11.6
  #     hydro 3 p 16
  #     hydro 2 s 17.2
  
  -----------------------------------------------------------------------
  Completed first pass over input file control.in .
  -----------------------------------------------------------------------
  
  
  -----------------------------------------------------------------------
  Parsing geometry.in (first pass over file, find array dimensions only).
  The contents of geometry.in will be repeated verbatim below
  unless switched off by setting 'verbatim_writeout .false.' .
  in the first line of geometry.in .
  -----------------------------------------------------------------------
  
  atom  0.00000 0.00000 0.00000 C
  atom  1.09300 0.00000 0.00000 H
  atom  -0.47961 0.00000 -1.41207 N
  atom  -1.08140 0.81227 -1.55311 H
  atom  0.32692 0.04792 -2.03121 H
  atom  -0.49584 1.26211 0.72868 C
  atom  -1.58789 1.28919 0.74431 H
  atom  -0.13407 1.27425 1.75947 H
  atom  -0.13407 2.16087 0.22380 H
  atom  -0.39425 -1.28861 0.74398 C
  atom  -0.10189 -1.56493 1.88303 O
  atom  -1.10210 -2.13717 0.06896 O
  atom  -1.88646 -2.15589 0.64291 H
  
  -----------------------------------------------------------------------
  Completed first pass over input file geometry.in .
  -----------------------------------------------------------------------
  

  Basic array size parameters:
  | Number of species                 :        4
  | Number of atoms                   :       13
  | Max. basis fn. angular momentum   :        2
  | Max. atomic/ionic basis occupied n:        2
  | Max. number of basis fn. types    :        2
  | Max. radial fns per species/type  :        3
  | Max. logarithmic grid size        :     1301
  | Max. radial integration grid size :       36
  | Max. angular integration grid size:      302
  | Max. angular grid division number :        8
  | Radial grid for Hartree potential :     1301
  | Number of spin channels           :        1

------------------------------------------------------------
          Reading file control.in.
------------------------------------------------------------
  XC: Using PBE gradient-corrected functionals.
  Spin treatment: No spin polarisation.
  Non-relativistic treatment of kinetic energy.
  Charge =   0.000000E+00: Neutral system requested explicitly.
  Occupation type: Gaussian broadening, width =   0.100000E-01 eV.
  Using pulay charge density mixing.
  Pulay mixing - number of memorized iterations:   10
  Charge density mixing - mixing parameter:     0.2000
  Convergence accuracy of self-consistent charge density:  0.1000E-04
  Convergence accuracy of sum of eigenvalues:  0.1000E-02
  Convergence accuracy of total energy:  0.1000E-05
  Convergence accuracy of forces:  0.1000E-03
  Maximum number of s.-c. iterations  :   100
 
  Reading configuration options for species H                   .
  | Found nuclear charge :   1.0000
  | Found atomic mass :    1.00794000000000      amu
  | Found l_max for Hartree potential  :   4
  | Found cutoff potl. onset [A], width [A], scale factor :    3.50000    1.50000    1.00000
  | Threshold for basis-dependent cutoff potential is   0.100000E-03
  | Found data for basic radial integration grid :    24 points, outermost radius =    5.000 A
  | Found multiplier for basic radial grid :   1
  | Found angular grid specification: user-specified.
  | Specified grid contains     5 separate shells.
  | Check grid settings after all constraints further below.
  | Found free-atom valence shell :  1 s   1.000
  | No ionic wave fns used. Skipping ion_occ.
  | Found hydrogenic basis function :  2 s   2.100
  | Found hydrogenic basis function :  2 p   3.500
  Species H                   : Missing cutoff potential type.
  Defaulting to exp(1/x)/(1-x)^2 type cutoff potential.
  Species H : No 'logarithmic' tag. Using default grid for free atom:
  | Default logarithmic grid data [bohr] : 0.1000E-03 0.1000E+03 0.1012E+01
  Species H : On-site basis accuracy parameter (for Gram-Schmidt orthonormalisation) not specified.
  Using default value basis_acc =  0.1000000E-03.
  Species H                   : Using default innermost maximum threshold i_radial=  2 for radial functions.
  Species H                   : Default cutoff onset for free atom density etc. : 0.35000000E+01 AA.
  Species H                   : Basic radial grid will be enhanced according to radial_multiplier =   1, to contain    24 grid points.
 
  Reading configuration options for species C                   .
  | Found nuclear charge :   6.0000
  | Found atomic mass :    12.0107000000000      amu
  | Found l_max for Hartree potential  :   4
  | Found cutoff potl. onset [A], width [A], scale factor :    3.50000    1.50000    1.00000
  | Threshold for basis-dependent cutoff potential is   0.100000E-03
  | Found data for basic radial integration grid :    34 points, outermost radius =    5.000 A
  | Found multiplier for basic radial grid :   1
  | Found angular grid specification: user-specified.
  | Specified grid contains     5 separate shells.
  | Check grid settings after all constraints further below.
  | Found free-atom valence shell :  2 s   2.000
  | Found free-atom valence shell :  2 p   2.000
  | No ionic wave fns used. Skipping ion_occ.
  | No ionic wave fns used. Skipping ion_occ.
  | Found hydrogenic basis function :  2 p   1.700
  | Found hydrogenic basis function :  3 d   6.000
  | Found hydrogenic basis function :  2 s   4.900
  Species C                   : Missing cutoff potential type.
  Defaulting to exp(1/x)/(1-x)^2 type cutoff potential.
  Species C : No 'logarithmic' tag. Using default grid for free atom:
  | Default logarithmic grid data [bohr] : 0.1000E-03 0.1000E+03 0.1012E+01
  Species C : On-site basis accuracy parameter (for Gram-Schmidt orthonormalisation) not specified.
  Using default value basis_acc =  0.1000000E-03.
  Species C                   : Using default innermost maximum threshold i_radial=  2 for radial functions.
  Species C                   : Default cutoff onset for free atom density etc. : 0.35000000E+01 AA.
  Species C                   : Basic radial grid will be enhanced according to radial_multiplier =   1, to contain    34 grid points.
 
  Reading configuration options for species N                   .
  | Found nuclear charge :   7.0000
  | Found atomic mass :    14.0067000000000      amu
  | Found l_max for Hartree potential  :   4
  | Found cutoff potl. onset [A], width [A], scale factor :    3.50000    1.50000    1.00000
  | Threshold for basis-dependent cutoff potential is   0.100000E-03
  | Found data for basic radial integration grid :    35 points, outermost radius =    5.000 A
  | Found multiplier for basic radial grid :   1
  | Found angular grid specification: user-specified.
  | Specified grid contains     5 separate shells.
  | Check grid settings after all constraints further below.
  | Found free-atom valence shell :  2 s   2.000
  | Found free-atom valence shell :  2 p   3.000
  | No ionic wave fns used. Skipping ion_occ.
  | No ionic wave fns used. Skipping ion_occ.
  | Found hydrogenic basis function :  2 p   1.800
  | Found hydrogenic basis function :  3 d   6.800
  | Found hydrogenic basis function :  3 s   5.800
  Species N                   : Missing cutoff potential type.
  Defaulting to exp(1/x)/(1-x)^2 type cutoff potential.
  Species N : No 'logarithmic' tag. Using default grid for free atom:
  | Default logarithmic grid data [bohr] : 0.1000E-03 0.1000E+03 0.1012E+01
  Species N : On-site basis accuracy parameter (for Gram-Schmidt orthonormalisation) not specified.
  Using default value basis_acc =  0.1000000E-03.
  Species N                   : Using default innermost maximum threshold i_radial=  2 for radial functions.
  Species N                   : Default cutoff onset for free atom density etc. : 0.35000000E+01 AA.
  Species N                   : Basic radial grid will be enhanced according to radial_multiplier =   1, to contain    35 grid points.
 
  Reading configuration options for species O                   .
  | Found nuclear charge :   8.0000
  | Found atomic mass :    15.9994000000000      amu
  | Found l_max for Hartree potential  :   4
  | Found cutoff potl. onset [A], width [A], scale factor :    3.50000    1.50000    1.00000
  | Threshold for basis-dependent cutoff potential is   0.100000E-03
  | Found data for basic radial integration grid :    36 points, outermost radius =    5.000 A
  | Found multiplier for basic radial grid :   1
  | Found angular grid specification: user-specified.
  | Specified grid contains     5 separate shells.
  | Check grid settings after all constraints further below.
  | Found free-atom valence shell :  2 s   2.000
  | Found free-atom valence shell :  2 p   4.000
  | No ionic wave fns used. Skipping ion_occ.
  | No ionic wave fns used. Skipping ion_occ.
  | Found hydrogenic basis function :  2 p   1.800
  | Found hydrogenic basis function :  3 d   7.600
  | Found hydrogenic basis function :  3 s   6.400
  Species O                   : Missing cutoff potential type.
  Defaulting to exp(1/x)/(1-x)^2 type cutoff potential.
  Species O : No 'logarithmic' tag. Using default grid for free atom:
  | Default logarithmic grid data [bohr] : 0.1000E-03 0.1000E+03 0.1012E+01
  Species O : On-site basis accuracy parameter (for Gram-Schmidt orthonormalisation) not specified.
  Using default value basis_acc =  0.1000000E-03.
  Species O                   : Using default innermost maximum threshold i_radial=  2 for radial functions.
  Species O                   : Default cutoff onset for free atom density etc. : 0.35000000E+01 AA.
  Species O                   : Basic radial grid will be enhanced according to radial_multiplier =   1, to contain    36 grid points.
 
  Finished reading input file 'control.in'. Consistency checks are next.
 
  MPI_IN_PLACE appears to work with this MPI implementation.
  | Keeping use_mpi_in_place .true. (see manual).
  Target number of points in a grid batch is not set. Defaulting to  100
  Method for grid partitioning is not set. Defaulting to parallel hash+maxmin partitioning.
  Batch size limit is not set. Defaulting to    200
  By default, will store active basis functions for each batch.
  If in need of memory, prune_basis_once .false. can be used to disable this option.
  communication_type for Hartree potential was not specified.
  Defaulting to calc_hartree .
  Pulay mixer: Number of initial linear mixing iterations not set.
  Defaulting to    0 iterations.
  Work space size for distributed Hartree potential not set.
  Defaulting to   0.200000E+03 MB.
  Algorithm-dependent basis array size parameters:
  | n_max_pulay                         :       10
  Presetting      1001 iterations before the initial mixing cycle
  is restarted anyway using the sc_init_iter criterion / keyword.
  Presetting a factor      1.000 between actual scf density residual
  and density convergence criterion sc_accuracy_rho below which sc_init_iter
  takes no effect.
  Geometry relaxation not requested: no relaxation will be performed.
  Handling of forces: Unphysical translation and rotation will be removed from forces.
  No accuracy limit for integral partition fn. given. Defaulting to  0.1000E-14.
  No threshold value for u(r) in integrations given. Defaulting to  0.1000E-05.
  No accuracy for occupation numbers given. Defaulting to  0.1000E-12.
  No threshold value for occupation numbers given. Defaulting to  0.0000E+00.
  No accuracy for fermi level given. Defaulting to  0.1000E-19.
  Maximum # of iterations to find E_F not set. Defaulting to  200.
  Preferred method for the eigenvalue solver ('KS_method') not specified in 'control.in'.
  Defaulting to serial version, 'lapack_fast'.
  Will not use alltoall communication since running on < 1024 CPUs.
  Threshold for basis singularities not set.
  Default threshold for basis singularities:  0.1000E-04
  partition_type (choice of integration weights) for integrals was not specified.
  | Using a version of the partition function of Stratmann and coworkers ('stratmann_smoother').
  | At each grid point, the set of atoms used to build the partition table is smoothly restricted to
  | only those atoms whose free-atom density would be non-zero at that grid point.
  Partitioning for Hartree potential was not defined. Using partition_type for integrals.
  | Adjusted default value of keyword multip_moments_threshold to:       0.10000000E-11
  | This value may affect high angular momentum components of the Hartree potential in periodic systems.
  No q(lm)/r^(l+1) cutoff set for long-range Hartree potential.
  | Using default value of  0.100000E-09 .
  | Verify using the multipole_threshold keyword.
  Defaulting to new monopole extrapolation.
  Density update method: automatic selection selected.
------------------------------------------------------------


------------------------------------------------------------
          Reading geometry description geometry.in.
------------------------------------------------------------
  Input structure read successfully.
  The structure contains       13 atoms,  and a total of         48.000 electrons.

  Input geometry:
  | No unit cell requested.
  | Atomic structure:
  |       Atom                x [A]            y [A]            z [A]
  |    1: Species C             0.00000000        0.00000000        0.00000000
  |    2: Species H             1.09300000        0.00000000        0.00000000
  |    3: Species N            -0.47961000        0.00000000       -1.41207000
  |    4: Species H            -1.08140000        0.81227000       -1.55311000
  |    5: Species H             0.32692000        0.04792000       -2.03121000
  |    6: Species C            -0.49584000        1.26211000        0.72868000
  |    7: Species H            -1.58789000        1.28919000        0.74431000
  |    8: Species H            -0.13407000        1.27425000        1.75947000
  |    9: Species H            -0.13407000        2.16087000        0.22380000
  |   10: Species C            -0.39425000       -1.28861000        0.74398000
  |   11: Species O            -0.10189000       -1.56493000        1.88303000
  |   12: Species O            -1.10210000       -2.13717000        0.06896000
  |   13: Species H            -1.88646000       -2.15589000        0.64291000
  |

  | The smallest distance between any two atoms is         0.97210578 AA.
  |
  | The first atom of this pair is atom number                     12 .
  | The second atom of this pair is atom number                    13 .

  Number of empty states per atom not set in control.in - providing a guess from actual geometry.
  | Total number of empty states used during s.c.f. cycle:       29
  If you use a very high smearing, use empty_states (per atom!) in control.in to increase this value.

  Structure-dependent array size parameters: 
  | Maximum number of distinct radial functions  :       21
  | Maximum number of basis functions            :      119
  | Number of Kohn-Sham states (occupied + empty):       53
------------------------------------------------------------

------------------------------------------------------------
          Preparing all fixed parts of the calculation.
------------------------------------------------------------
  Determining machine precision:
    2.225073858507201E-308
  Setting up grids for atomic and cluster calculations.

  Creating wave function, potential, and density for free atoms.

  Species: H

  List of occupied orbitals and eigenvalues:
    n    l              occ      energy [Ha]    energy [eV]
    1    0           1.0000        -0.237589        -6.4651


  Species: C

  List of occupied orbitals and eigenvalues:
    n    l              occ      energy [Ha]    energy [eV]
    1    0           2.0000       -10.038835      -273.1706
    2    0           2.0000        -0.502696       -13.6791
    2    1           2.0000        -0.191971        -5.2238


  Species: N

  List of occupied orbitals and eigenvalues:
    n    l              occ      energy [Ha]    energy [eV]
    1    0           2.0000       -14.128000      -384.4424
    2    0           2.0000        -0.681077       -18.5330
    2    1           3.0000        -0.259788        -7.0692


  Species: O

  List of occupied orbitals and eigenvalues:
    n    l              occ      energy [Ha]    energy [eV]
    1    0           2.0000       -18.898188      -514.2459
    2    0           2.0000        -0.878505       -23.9053
    2    1           4.0000        -0.331779        -9.0282

  Creating fixed part of basis set: Ionic, confined, hydrogenic.
 
  H                    hydrogenic:
 
  List of hydrogenic basis orbitals: 
    n    l      effective z      eigenvalue [eV]  inner max. [A]     outer max. [A]     outer radius [A]   
    2    0         2.100000       -14.9728           0.193243           1.317208           4.583499
    2    1         3.500000       -41.6669           0.602369           0.602369           3.723403
 
 
  C                    hydrogenic:
 
  List of hydrogenic basis orbitals: 
    n    l      effective z      eigenvalue [eV]  inner max. [A]     outer max. [A]     outer radius [A]   
    2    1         1.700000        -9.7616           1.230570           1.230570           4.607917
    3    2         6.000000       -54.4224           0.792453           0.792453           3.883070
    2    0         4.900000       -81.6679           0.082559           0.562749           3.078220
 
 
  N                    hydrogenic:
 
  List of hydrogenic basis orbitals: 
    n    l      effective z      eigenvalue [eV]  inner max. [A]     outer max. [A]     outer radius [A]   
    2    1         1.800000       -10.9749           1.177451           1.177451           4.573712
    3    2         6.800000       -69.9026           0.704619           0.704619           3.538137
    3    0         5.800000       -50.8545           0.067388           1.191934           4.250239
 
 
  O                    hydrogenic:
 
  List of hydrogenic basis orbitals: 
    n    l      effective z      eigenvalue [eV]  inner max. [A]     outer max. [A]     outer radius [A]   
    2    1         1.800000       -10.9749           1.164242           1.164242           4.578029
    3    2         7.600000       -87.3180           0.624125           0.624125           3.251020
    3    0         6.400000       -61.9207           0.061167           1.081902           4.001998
 

  Adding cutoff potential to free-atom effective potential.
  Creating atomic-like basis functions for current effective potential.

  Species H                   :

  List of atomic basis orbitals and eigenvalues:
    n    l      energy [Ha]    energy [eV]    outer radius [A]
    1    0        -0.237589        -6.4651       4.527807


  Species C                   :

  List of atomic basis orbitals and eigenvalues:
    n    l      energy [Ha]    energy [eV]    outer radius [A]
    1    0       -10.038835      -273.1706       1.934409
    2    0        -0.502696       -13.6791       4.496620
    2    1        -0.191971        -5.2238       4.551928


  Species N                   :

  List of atomic basis orbitals and eigenvalues:
    n    l      energy [Ha]    energy [eV]    outer radius [A]
    1    0       -14.128000      -384.4424       1.637919
    2    0        -0.681077       -18.5330       4.463241
    2    1        -0.259788        -7.0692       4.518138


  Species O                   :

  List of atomic basis orbitals and eigenvalues:
    n    l      energy [Ha]    energy [eV]    outer radius [A]
    1    0       -18.898188      -514.2459       1.415765
    2    0        -0.878505       -23.9053       4.413171
    2    1        -0.331779        -9.0282       4.522403

  Assembling full basis from fixed parts.
  | Species H :   atomic orbital   1 s accepted.
  | Species H :    hydro orbital   2 s accepted.
  | Species H :    hydro orbital   2 p accepted.
  | Species C :   atomic orbital   1 s accepted.
  | Species C :    hydro orbital   2 s accepted.
  | Species C :   atomic orbital   2 s accepted.
  | Species C :   atomic orbital   2 p accepted.
  | Species C :    hydro orbital   2 p accepted.
  | Species C :    hydro orbital   3 d accepted.
  | Species N :   atomic orbital   1 s accepted.
  | Species N :    hydro orbital   3 s accepted.
  | Species N :   atomic orbital   2 s accepted.
  | Species N :   atomic orbital   2 p accepted.
  | Species N :    hydro orbital   2 p accepted.
  | Species N :    hydro orbital   3 d accepted.
  | Species O :   atomic orbital   1 s accepted.
  | Species O :    hydro orbital   3 s accepted.
  | Species O :   atomic orbital   2 s accepted.
  | Species O :   atomic orbital   2 p accepted.
  | Species O :    hydro orbital   2 p accepted.
  | Species O :    hydro orbital   3 d accepted.
 
  Basis size parameters after reduction:
  | Total number of radial functions:       21
  | Total number of basis functions :      119
 
  Per-task memory consumption for arrays in subroutine allocate_ext:
  |           5.250512MB.
  Testing on-site integration grid accuracy.
  |  Species  Function  <phi|h_atom|phi> (log., in eV)  <phi|h_atom|phi> (rad., in eV)
           1        1                 -6.4663192853                 -6.4651273558
           1        2                 13.7111246313                 13.7170609718
           1        3                 25.2673269279                 25.2674696378
           2        4               -273.1705927641               -273.1705631568
           2        5                -10.7109323383                -10.7107120029
           2        6                 17.4381822266                 17.4352413244
           2        7                 -5.2255326521                 -5.2270484734
           2        8                  8.6835629259                  8.6603288385
           2        9                 27.4952418996                 27.4953360207
           3       10               -384.4424306495               -384.4423701208
           3       11                 12.5842251816                 12.5842222903
           3       12                -15.7264628251                -15.7264433455
           3       13                 -7.0696854293                 -7.0701769954
           3       14                  8.8090390882                  8.7901077751
           3       15                 35.9586762123                 35.9588528632
           4       16               -514.2458688638               -514.2457643834
           4       17                 15.1795651126                 15.1795290741
           4       18                -21.5359799773                -21.5360846186
           4       19                 -9.0283069236                 -9.0284644067
           4       20                  8.3027758564                  8.2834874195
           4       21                 45.8339351984                 45.8338762259

  Preparing densities etc. for the partition functions (integrals / Hartree potential).

  Preparations completed.
  max(cpu_time)          :      0.145 s.
  Wall clock time (cpu1) :      0.147 s.
------------------------------------------------------------

------------------------------------------------------------
          Begin self-consistency loop: Initialization.

          Date     :  20200710, Time     :  150937.315
------------------------------------------------------------

  Initializing index lists of integration centers etc. from given atomic structure:
  | Number of centers in hartree potential         :        13
  | Number of centers in hartree multipole         :        13
  | Number of centers in electron density summation:        13
  | Number of centers in basis integrals           :        13
  | Number of centers in integrals                 :        13
  | Number of centers in hamiltonian               :        13
  Partitioning the integration grid into batches with parallel hashing+maxmin method.
  | Number of batches:      952
  | Maximal batch size:     139
  | Minimal batch size:      66
  | Average batch size:      73.158
  | Standard deviation of batch sizes:      18.023

  Integration load balanced across     1 MPI tasks.
  Work distribution over tasks is as follows:
  Task     0 has      69646 integration points.
  Initializing partition tables, free-atom densities, potentials, etc. across the integration grid (initialize_grid_storage).
  | initialize_grid_storage: Actual outermost partition radius vs. multipole_radius_free
  | (-- VB: in principle, multipole_radius_free should be larger, hence this output)
  | Species        1: Confinement radius =              4.999999999999999 AA, multipole_radius_free =              5.054417573612229 AA.
  | Species        1: outer_partition_radius set to              5.054417573612229 AA .
  | Species        2: Confinement radius =              4.999999999999999 AA, multipole_radius_free =              5.019602836301480 AA.
  | Species        2: outer_partition_radius set to              5.019602836301480 AA .
  | Species        3: Confinement radius =              4.999999999999999 AA, multipole_radius_free =              5.043624274424571 AA.
  | Species        3: outer_partition_radius set to              5.043624274424571 AA .
  | Species        4: Confinement radius =              4.999999999999999 AA, multipole_radius_free =              5.048384829883283 AA.
  | Species        4: outer_partition_radius set to              5.048384829883283 AA .
  | Original list of interatomic distances with          13 x         13 entries is created.
  | Net number of integration points:    69646
  | of which are non-zero points    :    59588
  Renormalizing the initial density to the exact electron count on the 3D integration grid.
  | Initial density: Formal number of electrons (from input files) :      48.0000000000
  | Integrated number of electrons on 3D grid     :      47.9999265443
  | Charge integration error                      :      -0.0000734557
  | Normalization factor for density and gradient :       1.0000015303
  Obtaining max. number of non-zero basis functions in each batch (get_n_compute_maxes).
  | Maximal number of non-zero basis functions:      119 in task     0
  Selecting the method for density update.
  Loop over occupied states selected for charge density update.
  Allocating        0.050 MB for KS_eigenvector
  Integrating Hamiltonian matrix: batch-based integration.
  Time summed over all CPUs for integration: real work        0.493 s, elapsed        0.493 s
  Integrating overlap matrix.
  Time summed over all CPUs for integration: real work        0.211 s, elapsed        0.211 s

  Updating Kohn-Sham eigenvalues and eigenvectors using ELSI and the ELPA eigensolver.
  Overlap matrix is nonsingular
  | Lowest eigenvalue of overlap  :  0.44E-02
  | Highest eigenvalue of overlap :  0.61E+01
  Finished singularity check of overlap matrix
  | Time :     0.002 s
  Finished Cholesky decomposition
  | Time :     0.000 s
  Finished transformation to standard eigenproblem
  | Time :     0.000 s
  Starting LAPACK eigensolver
  Finished solving standard eigenproblem
  | Time :     0.002 s
  Finished back-transformation of eigenvectors
  | Time :     0.000 s

  Obtaining occupation numbers and chemical potential using ELSI.
  | Chemical potential (Fermi level):   -10.11874015eV
  Writing Kohn-Sham eigenvalues.

  State    Occupation    Eigenvalue [Ha]    Eigenvalue [eV]
      1       2.00000         -19.007484         -517.21997
      2       2.00000         -18.977618         -516.40726
      3       2.00000         -14.245794         -387.64778
      4       2.00000         -10.166906         -276.65560
      5       2.00000         -10.141261         -275.95774
      6       2.00000         -10.131883         -275.70256
      7       2.00000          -1.185050          -32.24686
      8       2.00000          -1.094804          -29.79114
      9       2.00000          -0.992026          -26.99440
     10       2.00000          -0.859218          -23.38050
     11       2.00000          -0.761556          -20.72299
     12       2.00000          -0.676504          -18.40862
     13       2.00000          -0.623055          -16.95418
     14       2.00000          -0.606433          -16.50189
     15       2.00000          -0.588559          -16.01551
     16       2.00000          -0.575769          -15.66748
     17       2.00000          -0.552061          -15.02234
     18       2.00000          -0.528002          -14.36766
     19       2.00000          -0.518634          -14.11275
     20       2.00000          -0.499697          -13.59745
     21       2.00000          -0.458142          -12.46667
     22       2.00000          -0.428606          -11.66297
     23       2.00000          -0.413490          -11.25162
     24       2.00000          -0.380185          -10.34535
     25       0.00000          -0.160738           -4.37389
     26       0.00000          -0.062657           -1.70499
     27       0.00000          -0.033786           -0.91936
     28       0.00000          -0.021686           -0.59010
     29       0.00000          -0.008606           -0.23417
     30       0.00000           0.009746            0.26520
     31       0.00000           0.018075            0.49183
     32       0.00000           0.028400            0.77281
     33       0.00000           0.039908            1.08595
     34       0.00000           0.080804            2.19878
     35       0.00000           0.096097            2.61494
     36       0.00000           0.135151            3.67766
     37       0.00000           0.157253            4.27908
     38       0.00000           0.200578            5.45800
     39       0.00000           0.204630            5.56826
     40       0.00000           0.230044            6.25980
     41       0.00000           0.260646            7.09253
     42       0.00000           0.269756            7.34042
     43       0.00000           0.294268            8.00745
     44       0.00000           0.308883            8.40514
     45       0.00000           0.318433            8.66502
     46       0.00000           0.355340            9.66930
     47       0.00000           0.374809           10.19908
     48       0.00000           0.405611           11.03724
     49       0.00000           0.453351           12.33630
     50       0.00000           0.476972           12.97906
     51       0.00000           0.524599           14.27507
     52       0.00000           0.528575           14.38325
     53       0.00000           0.544649           14.82066

  Highest occupied state (VBM) at    -10.34535119 eV
  | Occupation number:      2.00000000

  Lowest unoccupied state (CBM) at    -4.37389463 eV
  | Occupation number:      0.00000000

  Overall HOMO-LUMO gap:      5.97145655 eV.
  Calculating total energy contributions from superposition of free atom densities.

  Total energy components:
  | Sum of eigenvalues            :        -188.82547521 Ha       -5138.20260944 eV
  | XC energy correction          :         -41.78380109 Ha       -1136.99507727 eV
  | XC potential correction       :          53.71311206 Ha        1461.60814501 eV
  | Free-atom electrostatic energy:        -146.86367549 Ha       -3996.36394275 eV
  | Hartree energy correction     :           0.00000000 Ha           0.00000000 eV
  | vdW energy correction         :           0.00000000 Ha           0.00000000 eV
  | Entropy correction            :          -0.00000000 Ha          -0.00000000 eV
  | ---------------------------
  | Total energy                  :        -323.75983973 Ha       -8809.95348444 eV
  | Total energy, T -> 0          :        -323.75983973 Ha       -8809.95348444 eV  <-- do not rely on this value for anything but (periodic) metals
  | Electronic free energy        :        -323.75983973 Ha       -8809.95348444 eV

  Derived energy quantities:
  | Kinetic energy                :         320.48659967 Ha        8720.88409073 eV
  | Electrostatic energy          :        -602.46263831 Ha      -16393.84249790 eV
  | Energy correction for multipole
  | error in Hartree potential    :           0.00000000 Ha           0.00000000 eV
  | Sum of eigenvalues per atom                           :        -395.24635457 eV
  | Total energy (T->0) per atom                          :        -677.68872957 eV  <-- do not rely on this value for anything but (periodic) metals
  | Electronic free energy per atom                       :        -677.68872957 eV
  Initialize hartree_potential_storage
  Max. number of atoms included in rho_multipole:           13

  End scf initialization - timings             :  max(cpu_time)    wall_clock(cpu1)
  | Time for scf. initialization               :        1.145 s           1.149 s
  | Boundary condition initialization          :        0.000 s           0.000 s
  | Integration                                :        0.703 s           0.705 s
  | Solution of K.-S. eqns.                    :        0.004 s           0.004 s
  | Grid partitioning                          :        0.111 s           0.112 s
  | Preloading free-atom quantities on grid    :        0.002 s           0.003 s
  | Free-atom superposition energy             :        0.085 s           0.084 s
  | Total energy evaluation                    :        0.000 s           0.001 s

  Partial memory accounting:
  | Current value for overall tracked memory usage on task 0  :           0.165 MB
  | Peak value for overall tracked memory usage on task 0     :           0.678 MB after allocating wave
  | Largest tracked array allocation on task 0 so far         :           0.132 MB  when allocating H_times_psi
  Note:  These values currently only include a subset of arrays which are explicitly tracked.
  The "true" memory usage will be greater.
------------------------------------------------------------

------------------------------------------------------------
          Begin self-consistency iteration #    1

  Date     :  20200710, Time     :  150938.464
------------------------------------------------------------
  Evaluating new KS density.
  Integration grid: deviation in total charge (<rho> - N_e) =  -3.552714E-14
  Pulay mixing of updated and previous charge densities.

  Evaluating partitioned Hartree potential by multipole expansion.
  | Analytical far-field extrapolation by fixed multipoles:
  | Hartree multipole sum: apparent total charge =  -0.179315E-03
  Summing up the Hartree potential.
  Time summed over all CPUs for potential: real work        0.282 s, elapsed        0.282 s
  | RMS charge density error from multipole expansion :   0.583301E-02

  Integrating Hamiltonian matrix: batch-based integration.
  Time summed over all CPUs for integration: real work        0.493 s, elapsed        0.493 s

  Updating Kohn-Sham eigenvalues and eigenvectors using ELSI and the ELPA eigensolver.
  Finished Cholesky decomposition
  | Time :     0.000 s
  Finished transformation to standard eigenproblem
  | Time :     0.000 s
  Starting LAPACK eigensolver
  Finished solving standard eigenproblem
  | Time :     0.002 s
  Finished back-transformation of eigenvectors
  | Time :     0.000 s

  Obtaining occupation numbers and chemical potential using ELSI.
  | Chemical potential (Fermi level):    -4.94482961eV
  Writing Kohn-Sham eigenvalues.

  State    Occupation    Eigenvalue [Ha]    Eigenvalue [eV]
      1       2.00000         -18.891536         -514.06485
      2       2.00000         -18.838127         -512.61152
      3       2.00000         -14.094825         -383.53971
      4       2.00000         -10.113280         -275.19634
      5       2.00000         -10.062020         -273.80149
      6       2.00000         -10.034619         -273.05587
      7       2.00000          -1.130588          -30.76487
      8       2.00000          -1.029351          -28.01007
      9       2.00000          -0.921150          -25.06578
     10       2.00000          -0.793996          -21.60574
     11       2.00000          -0.709787          -19.31430
     12       2.00000          -0.626787          -17.05575
     13       2.00000          -0.566443          -15.41369
     14       2.00000          -0.546128          -14.86089
     15       2.00000          -0.527019          -14.34092
     16       2.00000          -0.515477          -14.02685
     17       2.00000          -0.488779          -13.30035
     18       2.00000          -0.468397          -12.74572
     19       2.00000          -0.455510          -12.39505
     20       2.00000          -0.442416          -12.03874
     21       2.00000          -0.397845          -10.82591
     22       2.00000          -0.365740           -9.95230
     23       2.00000          -0.339538           -9.23929
     24       2.00000          -0.306296           -8.33473
     25       0.00000          -0.123396           -3.35779
     26       0.00000          -0.037169           -1.01143
     27       0.00000          -0.009546           -0.25976
     28       0.00000           0.016656            0.45323
     29       0.00000           0.022611            0.61529
     30       0.00000           0.049618            1.35017
     31       0.00000           0.054718            1.48894
     32       0.00000           0.064602            1.75792
     33       0.00000           0.080749            2.19729
     34       0.00000           0.121508            3.30640
     35       0.00000           0.137732            3.74787
     36       0.00000           0.164393            4.47336
     37       0.00000           0.185931            5.05943
     38       0.00000           0.231106            6.28872
     39       0.00000           0.232928            6.33828
     40       0.00000           0.268148            7.29669
     41       0.00000           0.297817            8.10400
     42       0.00000           0.301668            8.20880
     43       0.00000           0.331453            9.01929
     44       0.00000           0.345449            9.40015
     45       0.00000           0.360850            9.81922
     46       0.00000           0.396235           10.78210
     47       0.00000           0.418845           11.39736
     48       0.00000           0.445915           12.13397
     49       0.00000           0.489643           13.32387
     50       0.00000           0.509822           13.87296
     51       0.00000           0.558790           15.20546
     52       0.00000           0.565189           15.37957
     53       0.00000           0.578843           15.75111

  Highest occupied state (VBM) at     -8.33473177 eV
  | Occupation number:      2.00000000

  Lowest unoccupied state (CBM) at    -3.35778822 eV
  | Occupation number:      0.00000000

  Overall HOMO-LUMO gap:      4.97694354 eV.

  Total energy components:
  | Sum of eigenvalues            :        -185.33130820 Ha       -5043.12148720 eV
  | XC energy correction          :         -42.11565113 Ha       -1146.02517634 eV
  | XC potential correction       :          54.14482490 Ha        1473.35564899 eV
  | Free-atom electrostatic energy:        -146.86367549 Ha       -3996.36394275 eV
  | Hartree energy correction     :          -3.40897590 Ha         -92.76295395 eV
  | vdW energy correction         :           0.00000000 Ha           0.00000000 eV
  | Entropy correction            :           0.00000000 Ha           0.00000000 eV
  | ---------------------------
  | Total energy                  :        -323.57478581 Ha       -8804.91791126 eV
  | Total energy, T -> 0          :        -323.57478581 Ha       -8804.91791126 eV  <-- do not rely on this value for anything but (periodic) metals
  | Electronic free energy        :        -323.57478581 Ha       -8804.91791126 eV

  Derived energy quantities:
  | Kinetic energy                :         322.29750734 Ha        8770.16139553 eV
  | Electrostatic energy          :        -603.75664202 Ha      -16429.05413045 eV
  | Energy correction for multipole
  | error in Hartree potential    :           0.01233129 Ha           0.33555149 eV
  | Sum of eigenvalues per atom                           :        -387.93242209 eV
  | Total energy (T->0) per atom                          :        -677.30137779 eV  <-- do not rely on this value for anything but (periodic) metals
  | Electronic free energy per atom                       :        -677.30137779 eV

  Self-consistency convergence accuracy:
  | Change of charge density      :  0.5884E+00
  | Change of sum of eigenvalues  :  0.9508E+02 eV
  | Change of total energy        :  0.5036E+01 eV

  End self-consistency iteration #     1       :  max(cpu_time)    wall_clock(cpu1)
  | Time for this iteration                    :        1.186 s           1.187 s
  | Charge density update                      :        0.393 s           0.393 s
  | Density mixing                             :        0.005 s           0.005 s
  | Hartree multipole update                   :        0.009 s           0.009 s
  | Hartree multipole summation                :        0.283 s           0.284 s
  | Integration                                :        0.493 s           0.493 s
  | Solution of K.-S. eqns.                    :        0.002 s           0.002 s
  | Total energy evaluation                    :        0.000 s           0.000 s

  Partial memory accounting:
  | Current value for overall tracked memory usage on task 0  :           0.165 MB
  | Peak value for overall tracked memory usage on task 0     :           0.695 MB after allocating gradient_basis_wave
  | Largest tracked array allocation on task 0 so far         :           0.397 MB  when allocating gradient_basis_wave
  Note:  These values currently only include a subset of arrays which are explicitly tracked.
  The "true" memory usage will be greater.
------------------------------------------------------------

------------------------------------------------------------
          Begin self-consistency iteration #    2

  Date     :  20200710, Time     :  150939.652
------------------------------------------------------------
  Evaluating new KS density.
  Integration grid: deviation in total charge (<rho> - N_e) =   4.263256E-14
  Pulay mixing of updated and previous charge densities.

  Evaluating partitioned Hartree potential by multipole expansion.
  | Analytical far-field extrapolation by fixed multipoles:
  | Hartree multipole sum: apparent total charge =  -0.315472E-03
  Summing up the Hartree potential.
  Time summed over all CPUs for potential: real work        0.283 s, elapsed        0.283 s
  | RMS charge density error from multipole expansion :   0.138604E-01

  Integrating Hamiltonian matrix: batch-based integration.
  Time summed over all CPUs for integration: real work        0.494 s, elapsed        0.494 s

  Updating Kohn-Sham eigenvalues and eigenvectors using ELSI and the ELPA eigensolver.
  Finished Cholesky decomposition
  | Time :     0.000 s
  Finished transformation to standard eigenproblem
  | Time :     0.000 s
  Starting LAPACK eigensolver
  Finished solving standard eigenproblem
  | Time :     0.001 s
  Finished back-transformation of eigenvectors
  | Time :     0.000 s

  Obtaining occupation numbers and chemical potential using ELSI.
  | Chemical potential (Fermi level):    -3.67406416eV
  Highest occupied state (VBM) at     -6.29238286 eV
  | Occupation number:      2.00000000

  Lowest unoccupied state (CBM) at    -2.07156714 eV
  | Occupation number:      0.00000000

  Overall HOMO-LUMO gap:      4.22081573 eV.

  Checking to see if s.c.f. parameters should be adjusted.

  Total energy components:
  | Sum of eigenvalues            :        -181.64885541 Ha       -4942.91684848 eV
  | XC energy correction          :         -42.47939739 Ha       -1155.92321577 eV
  | XC potential correction       :          54.61651698 Ha        1486.19104361 eV
  | Free-atom electrostatic energy:        -146.86367549 Ha       -3996.36394275 eV
  | Hartree energy correction     :          -7.11890200 Ha        -193.71517946 eV
  | vdW energy correction         :           0.00000000 Ha           0.00000000 eV
  | Entropy correction            :           0.00000000 Ha           0.00000000 eV
  | ---------------------------
  | Total energy                  :        -323.49431330 Ha       -8802.72814285 eV
  | Total energy, T -> 0          :        -323.49431330 Ha       -8802.72814285 eV  <-- do not rely on this value for anything but (periodic) metals
  | Electronic free energy        :        -323.49431330 Ha       -8802.72814285 eV

  Derived energy quantities:
  | Kinetic energy                :         323.63007452 Ha        8806.42239343 eV
  | Electrostatic energy          :        -604.64499043 Ha      -16453.22732050 eV
  | Energy correction for multipole
  | error in Hartree potential    :           0.02720719 Ha           0.74034544 eV
  | Sum of eigenvalues per atom                           :        -380.22437296 eV
  | Total energy (T->0) per atom                          :        -677.13293407 eV  <-- do not rely on this value for anything but (periodic) metals
  | Electronic free energy per atom                       :        -677.13293407 eV

  Self-consistency convergence accuracy:
  | Change of charge density      :  0.3673E+00
  | Change of sum of eigenvalues  :  0.1002E+03 eV
  | Change of total energy        :  0.2190E+01 eV

  End self-consistency iteration #     2       :  max(cpu_time)    wall_clock(cpu1)
  | Time for this iteration                    :        1.179 s           1.180 s
  | Charge density update                      :        0.385 s           0.385 s
  | Density mixing                             :        0.007 s           0.007 s
  | Hartree multipole update                   :        0.009 s           0.008 s
  | Hartree multipole summation                :        0.283 s           0.283 s
  | Integration                                :        0.494 s           0.494 s
  | Solution of K.-S. eqns.                    :        0.002 s           0.003 s
  | Total energy evaluation                    :        0.000 s           0.000 s

  Partial memory accounting:
  | Current value for overall tracked memory usage on task 0  :           0.166 MB
  | Peak value for overall tracked memory usage on task 0     :           0.695 MB after allocating gradient_basis_wave
  | Largest tracked array allocation on task 0 so far         :           0.397 MB  when allocating gradient_basis_wave
  Note:  These values currently only include a subset of arrays which are explicitly tracked.
  The "true" memory usage will be greater.
------------------------------------------------------------

------------------------------------------------------------
          Begin self-consistency iteration #    3

  Date     :  20200710, Time     :  150940.834
------------------------------------------------------------
  Evaluating new KS density.
  Integration grid: deviation in total charge (<rho> - N_e) =   7.105427E-15
  Pulay mixing of updated and previous charge densities.

  Evaluating partitioned Hartree potential by multipole expansion.
  | Analytical far-field extrapolation by fixed multipoles:
  | Hartree multipole sum: apparent total charge =  -0.414048E-03
  Summing up the Hartree potential.
  Time summed over all CPUs for potential: real work        0.283 s, elapsed        0.283 s
  | RMS charge density error from multipole expansion :   0.219190E-01

  Integrating Hamiltonian matrix: batch-based integration.
  Time summed over all CPUs for integration: real work        0.500 s, elapsed        0.500 s

  Updating Kohn-Sham eigenvalues and eigenvectors using ELSI and the ELPA eigensolver.
  Finished Cholesky decomposition
  | Time :     0.000 s
  Finished transformation to standard eigenproblem
  | Time :     0.000 s
  Starting LAPACK eigensolver
  Finished solving standard eigenproblem
  | Time :     0.002 s
  Finished back-transformation of eigenvectors
  | Time :     0.000 s

  Obtaining occupation numbers and chemical potential using ELSI.
  | Chemical potential (Fermi level):    -2.99363495eV
  Highest occupied state (VBM) at     -5.60585038 eV
  | Occupation number:      2.00000000

  Lowest unoccupied state (CBM) at    -1.35695796 eV
  | Occupation number:      0.00000000

  Overall HOMO-LUMO gap:      4.24889242 eV.

  Total energy components:
  | Sum of eigenvalues            :        -180.32781091 Ha       -4906.96939877 eV
  | XC energy correction          :         -42.62918668 Ha       -1159.99918974 eV
  | XC potential correction       :          54.80756232 Ha        1491.38965177 eV
  | Free-atom electrostatic energy:        -146.86367549 Ha       -3996.36394275 eV
  | Hartree energy correction     :          -8.46792970 Ha        -230.42409112 eV
  | vdW energy correction         :           0.00000000 Ha           0.00000000 eV
  | Entropy correction            :           0.00000000 Ha           0.00000000 eV
  | ---------------------------
  | Total energy                  :        -323.48104047 Ha       -8802.36697062 eV
  | Total energy, T -> 0          :        -323.48104047 Ha       -8802.36697062 eV  <-- do not rely on this value for anything but (periodic) metals
  | Electronic free energy        :        -323.48104047 Ha       -8802.36697062 eV

  Derived energy quantities:
  | Kinetic energy                :         323.16831466 Ha        8793.85726847 eV
  | Electrostatic energy          :        -604.02016845 Ha      -16436.22504934 eV
  | Energy correction for multipole
  | error in Hartree potential    :           0.03852631 Ha           1.04835413 eV
  | Sum of eigenvalues per atom                           :        -377.45918452 eV
  | Total energy (T->0) per atom                          :        -677.10515159 eV  <-- do not rely on this value for anything but (periodic) metals
  | Electronic free energy per atom                       :        -677.10515159 eV

  Self-consistency convergence accuracy:
  | Change of charge density      :  0.2052E+00
  | Change of sum of eigenvalues  :  0.3595E+02 eV
  | Change of total energy        :  0.3612E+00 eV

  End self-consistency iteration #     3       :  max(cpu_time)    wall_clock(cpu1)
  | Time for this iteration                    :        1.181 s           1.188 s
  | Charge density update                      :        0.385 s           0.385 s
  | Density mixing                             :        0.008 s           0.009 s
  | Hartree multipole update                   :        0.009 s           0.008 s
  | Hartree multipole summation                :        0.283 s           0.284 s
  | Integration                                :        0.493 s           0.500 s
  | Solution of K.-S. eqns.                    :        0.002 s           0.002 s
  | Total energy evaluation                    :        0.000 s           0.000 s

  Partial memory accounting:
  | Current value for overall tracked memory usage on task 0  :           0.166 MB
  | Peak value for overall tracked memory usage on task 0     :           0.695 MB after allocating gradient_basis_wave
  | Largest tracked array allocation on task 0 so far         :           0.397 MB  when allocating gradient_basis_wave
  Note:  These values currently only include a subset of arrays which are explicitly tracked.
  The "true" memory usage will be greater.
------------------------------------------------------------

------------------------------------------------------------
          Begin self-consistency iteration #    4

  Date     :  20200710, Time     :  150942.025
------------------------------------------------------------
  Evaluating new KS density.
  Integration grid: deviation in total charge (<rho> - N_e) =   2.842171E-14
  Pulay mixing of updated and previous charge densities.

  Evaluating partitioned Hartree potential by multipole expansion.
  | Analytical far-field extrapolation by fixed multipoles:
  | Hartree multipole sum: apparent total charge =  -0.446021E-03
  Summing up the Hartree potential.
  Time summed over all CPUs for potential: real work        0.283 s, elapsed        0.283 s
  | RMS charge density error from multipole expansion :   0.251148E-01

  Integrating Hamiltonian matrix: batch-based integration.
  Time summed over all CPUs for integration: real work        0.493 s, elapsed        0.493 s

  Updating Kohn-Sham eigenvalues and eigenvectors using ELSI and the ELPA eigensolver.
  Finished Cholesky decomposition
  | Time :     0.000 s
  Finished transformation to standard eigenproblem
  | Time :     0.000 s
  Starting LAPACK eigensolver
  Finished solving standard eigenproblem
  | Time :     0.002 s
  Finished back-transformation of eigenvectors
  | Time :     0.000 s

  Obtaining occupation numbers and chemical potential using ELSI.
  | Chemical potential (Fermi level):    -2.87644612eV
  Highest occupied state (VBM) at     -5.41429380 eV
  | Occupation number:      2.00000000

  Lowest unoccupied state (CBM) at    -1.26438553 eV
  | Occupation number:      0.00000000

  Overall HOMO-LUMO gap:      4.14990827 eV.

  Total energy components:
  | Sum of eigenvalues            :        -180.16043694 Ha       -4902.41492125 eV
  | XC energy correction          :         -42.66642580 Ha       -1161.01251776 eV
  | XC potential correction       :          54.85458248 Ha        1492.66913548 eV
  | Free-atom electrostatic energy:        -146.86367549 Ha       -3996.36394275 eV
  | Hartree energy correction     :          -8.64420190 Ha        -235.22070166 eV
  | vdW energy correction         :           0.00000000 Ha           0.00000000 eV
  | Entropy correction            :           0.00000000 Ha           0.00000000 eV
  | ---------------------------
  | Total energy                  :        -323.48015765 Ha       -8802.34294795 eV
  | Total energy, T -> 0          :        -323.48015765 Ha       -8802.34294795 eV  <-- do not rely on this value for anything but (periodic) metals
  | Electronic free energy        :        -323.48015765 Ha       -8802.34294795 eV

  Derived energy quantities:
  | Kinetic energy                :         322.81043282 Ha        8784.11880812 eV
  | Electrostatic energy          :        -603.62416467 Ha      -16425.44923831 eV
  | Energy correction for multipole
  | error in Hartree potential    :           0.04258547 Ha           1.15880970 eV
  | Sum of eigenvalues per atom                           :        -377.10884010 eV
  | Total energy (T->0) per atom                          :        -677.10330369 eV  <-- do not rely on this value for anything but (periodic) metals
  | Electronic free energy per atom                       :        -677.10330369 eV

  Self-consistency convergence accuracy:
  | Change of charge density      :  0.6223E-01
  | Change of sum of eigenvalues  :  0.4554E+01 eV
  | Change of total energy        :  0.2402E-01 eV

  End self-consistency iteration #     4       :  max(cpu_time)    wall_clock(cpu1)
  | Time for this iteration                    :        1.181 s           1.183 s
  | Charge density update                      :        0.385 s           0.385 s
  | Density mixing                             :        0.009 s           0.009 s
  | Hartree multipole update                   :        0.009 s           0.010 s
  | Hartree multipole summation                :        0.283 s           0.283 s
  | Integration                                :        0.493 s           0.493 s
  | Solution of K.-S. eqns.                    :        0.002 s           0.002 s
  | Total energy evaluation                    :        0.000 s           0.000 s

  Partial memory accounting:
  | Current value for overall tracked memory usage on task 0  :           0.166 MB
  | Peak value for overall tracked memory usage on task 0     :           0.696 MB after allocating gradient_basis_wave
  | Largest tracked array allocation on task 0 so far         :           0.397 MB  when allocating gradient_basis_wave
  Note:  These values currently only include a subset of arrays which are explicitly tracked.
  The "true" memory usage will be greater.
------------------------------------------------------------

------------------------------------------------------------
          Begin self-consistency iteration #    5

  Date     :  20200710, Time     :  150943.211
------------------------------------------------------------
  Evaluating new KS density.
  Integration grid: deviation in total charge (<rho> - N_e) =  -2.842171E-14
  Pulay mixing of updated and previous charge densities.

  Evaluating partitioned Hartree potential by multipole expansion.
  | Analytical far-field extrapolation by fixed multipoles:
  | Hartree multipole sum: apparent total charge =  -0.439808E-03
  Summing up the Hartree potential.
  Time summed over all CPUs for potential: real work        0.282 s, elapsed        0.282 s
  | RMS charge density error from multipole expansion :   0.248835E-01

  Integrating Hamiltonian matrix: batch-based integration.
  Time summed over all CPUs for integration: real work        0.493 s, elapsed        0.493 s

  Updating Kohn-Sham eigenvalues and eigenvectors using ELSI and the ELPA eigensolver.
  Finished Cholesky decomposition
  | Time :     0.000 s
  Finished transformation to standard eigenproblem
  | Time :     0.000 s
  Starting LAPACK eigensolver
  Finished solving standard eigenproblem
  | Time :     0.001 s
  Finished back-transformation of eigenvectors
  | Time :     0.000 s

  Obtaining occupation numbers and chemical potential using ELSI.
  | Chemical potential (Fermi level):    -2.95593037eV
  Highest occupied state (VBM) at     -5.51785110 eV
  | Occupation number:      2.00000000

  Lowest unoccupied state (CBM) at    -1.36911261 eV
  | Occupation number:      0.00000000

  Overall HOMO-LUMO gap:      4.14873848 eV.

  Total energy components:
  | Sum of eigenvalues            :        -180.39312697 Ha       -4908.74673912 eV
  | XC energy correction          :         -42.63902934 Ha       -1160.26702221 eV
  | XC potential correction       :          54.81902106 Ha        1491.70145998 eV
  | Free-atom electrostatic energy:        -146.86367549 Ha       -3996.36394275 eV
  | Hartree energy correction     :          -8.40304532 Ha        -228.65849723 eV
  | vdW energy correction         :           0.00000000 Ha           0.00000000 eV
  | Entropy correction            :           0.00000000 Ha           0.00000000 eV
  | ---------------------------
  | Total energy                  :        -323.47985606 Ha       -8802.33474133 eV
  | Total energy, T -> 0          :        -323.47985606 Ha       -8802.33474133 eV  <-- do not rely on this value for anything but (periodic) metals
  | Electronic free energy        :        -323.47985606 Ha       -8802.33474133 eV

  Derived energy quantities:
  | Kinetic energy                :         322.67588406 Ha        8780.45755003 eV
  | Electrostatic energy          :        -603.51671078 Ha      -16422.52526915 eV
  | Energy correction for multipole
  | error in Hartree potential    :           0.04191696 Ha           1.14061851 eV
  | Sum of eigenvalues per atom                           :        -377.59590301 eV
  | Total energy (T->0) per atom                          :        -677.10267241 eV  <-- do not rely on this value for anything but (periodic) metals
  | Electronic free energy per atom                       :        -677.10267241 eV

  Self-consistency convergence accuracy:
  | Change of charge density      :  0.1993E-01
  | Change of sum of eigenvalues  : -0.6332E+01 eV
  | Change of total energy        :  0.8207E-02 eV

  End self-consistency iteration #     5       :  max(cpu_time)    wall_clock(cpu1)
  | Time for this iteration                    :        1.183 s           1.184 s
  | Charge density update                      :        0.385 s           0.385 s
  | Density mixing                             :        0.011 s           0.010 s
  | Hartree multipole update                   :        0.009 s           0.009 s
  | Hartree multipole summation                :        0.283 s           0.283 s
  | Integration                                :        0.493 s           0.494 s
  | Solution of K.-S. eqns.                    :        0.002 s           0.002 s
  | Total energy evaluation                    :        0.000 s           0.000 s

  Partial memory accounting:
  | Current value for overall tracked memory usage on task 0  :           0.166 MB
  | Peak value for overall tracked memory usage on task 0     :           0.696 MB after allocating gradient_basis_wave
  | Largest tracked array allocation on task 0 so far         :           0.397 MB  when allocating gradient_basis_wave
  Note:  These values currently only include a subset of arrays which are explicitly tracked.
  The "true" memory usage will be greater.
------------------------------------------------------------

------------------------------------------------------------
          Begin self-consistency iteration #    6

  Date     :  20200710, Time     :  150944.398
------------------------------------------------------------
  Evaluating new KS density.
  Integration grid: deviation in total charge (<rho> - N_e) =  -3.552714E-14
  Pulay mixing of updated and previous charge densities.

  Evaluating partitioned Hartree potential by multipole expansion.
  | Analytical far-field extrapolation by fixed multipoles:
  | Hartree multipole sum: apparent total charge =  -0.444749E-03
  Summing up the Hartree potential.
  Time summed over all CPUs for potential: real work        0.282 s, elapsed        0.282 s
  | RMS charge density error from multipole expansion :   0.253384E-01

  Integrating Hamiltonian matrix: batch-based integration.
  Time summed over all CPUs for integration: real work        0.493 s, elapsed        0.493 s

  Updating Kohn-Sham eigenvalues and eigenvectors using ELSI and the ELPA eigensolver.
  Finished Cholesky decomposition
  | Time :     0.000 s
  Finished transformation to standard eigenproblem
  | Time :     0.000 s
  Starting LAPACK eigensolver
  Finished solving standard eigenproblem
  | Time :     0.002 s
  Finished back-transformation of eigenvectors
  | Time :     0.000 s

  Obtaining occupation numbers and chemical potential using ELSI.
  | Chemical potential (Fermi level):    -2.94025813eV
  Highest occupied state (VBM) at     -5.47278747 eV
  | Occupation number:      2.00000000

  Lowest unoccupied state (CBM) at    -1.36230809 eV
  | Occupation number:      0.00000000

  Overall HOMO-LUMO gap:      4.11047937 eV.

  Total energy components:
  | Sum of eigenvalues            :        -180.35350436 Ha       -4907.66855314 eV
  | XC energy correction          :         -42.64246064 Ha       -1160.36039248 eV
  | XC potential correction       :          54.82345835 Ha        1491.82220467 eV
  | Free-atom electrostatic energy:        -146.86367549 Ha       -3996.36394275 eV
  | Hartree energy correction     :          -8.44364307 Ha        -229.76321810 eV
  | vdW energy correction         :           0.00000000 Ha           0.00000000 eV
  | Entropy correction            :           0.00000000 Ha           0.00000000 eV
  | ---------------------------
  | Total energy                  :        -323.47982521 Ha       -8802.33390180 eV
  | Total energy, T -> 0          :        -323.47982521 Ha       -8802.33390180 eV  <-- do not rely on this value for anything but (periodic) metals
  | Electronic free energy        :        -323.47982521 Ha       -8802.33390180 eV

  Derived energy quantities:
  | Kinetic energy                :         322.61875003 Ha        8778.90285404 eV
  | Electrostatic energy          :        -603.45611460 Ha      -16420.87636337 eV
  | Energy correction for multipole
  | error in Hartree potential    :           0.04240724 Ha           1.15395966 eV
  | Sum of eigenvalues per atom                           :        -377.51296563 eV
  | Total energy (T->0) per atom                          :        -677.10260783 eV  <-- do not rely on this value for anything but (periodic) metals
  | Electronic free energy per atom                       :        -677.10260783 eV

  Self-consistency convergence accuracy:
  | Change of charge density      :  0.1004E-01
  | Change of sum of eigenvalues  :  0.1078E+01 eV
  | Change of total energy        :  0.8395E-03 eV

  End self-consistency iteration #     6       :  max(cpu_time)    wall_clock(cpu1)
  | Time for this iteration                    :        1.184 s           1.185 s
  | Charge density update                      :        0.385 s           0.385 s
  | Density mixing                             :        0.012 s           0.012 s
  | Hartree multipole update                   :        0.009 s           0.009 s
  | Hartree multipole summation                :        0.283 s           0.283 s
  | Integration                                :        0.493 s           0.493 s
  | Solution of K.-S. eqns.                    :        0.002 s           0.002 s
  | Total energy evaluation                    :        0.000 s           0.000 s

  Partial memory accounting:
  | Current value for overall tracked memory usage on task 0  :           0.166 MB
  | Peak value for overall tracked memory usage on task 0     :           0.696 MB after allocating gradient_basis_wave
  | Largest tracked array allocation on task 0 so far         :           0.397 MB  when allocating gradient_basis_wave
  Note:  These values currently only include a subset of arrays which are explicitly tracked.
  The "true" memory usage will be greater.
------------------------------------------------------------

------------------------------------------------------------
          Begin self-consistency iteration #    7

  Date     :  20200710, Time     :  150945.586
------------------------------------------------------------
  Evaluating new KS density.
  Integration grid: deviation in total charge (<rho> - N_e) =   0.000000E+00
  Pulay mixing of updated and previous charge densities.

  Evaluating partitioned Hartree potential by multipole expansion.
  | Analytical far-field extrapolation by fixed multipoles:
  | Hartree multipole sum: apparent total charge =  -0.445662E-03
  Summing up the Hartree potential.
  Time summed over all CPUs for potential: real work        0.284 s, elapsed        0.284 s
  | RMS charge density error from multipole expansion :   0.254371E-01

  Integrating Hamiltonian matrix: batch-based integration.
  Time summed over all CPUs for integration: real work        0.493 s, elapsed        0.493 s

  Updating Kohn-Sham eigenvalues and eigenvectors using ELSI and the ELPA eigensolver.
  Finished Cholesky decomposition
  | Time :     0.000 s
  Finished transformation to standard eigenproblem
  | Time :     0.000 s
  Starting LAPACK eigensolver
  Finished solving standard eigenproblem
  | Time :     0.002 s
  Finished back-transformation of eigenvectors
  | Time :     0.000 s

[...]
  |   Hirshfeld dipole moment :      0.06290289
  |   Hirshfeld second moments:      0.01615126      -0.02452281      -0.01585573
  |                                 -0.02452281      -0.02466209       0.00520321
  |                                 -0.01585573       0.00520321      -0.02416426
  ----------------------------------------------------------------------
  | Atom    12: O
  |   Hirshfeld charge        :     -0.16526951
  |   Free atom volume        :     23.61338643
  |   Hirshfeld volume        :     21.17539484
  |   Hirshfeld dipole vector :      0.00545103       0.01879770       0.04195293
  |   Hirshfeld dipole moment :      0.04629379
  |   Hirshfeld second moments:      0.09952594       0.01668819      -0.02551118
  |                                  0.01668819       0.03930388       0.00739600
  |                                 -0.02551118       0.00739600       0.01050070
  ----------------------------------------------------------------------
  | Atom    13: H
  |   Hirshfeld charge        :      0.18182449
  |   Free atom volume        :      9.95071624
  |   Hirshfeld volume        :      6.20405884
  |   Hirshfeld dipole vector :     -0.11466492      -0.00350958       0.05844955
  |   Hirshfeld dipole moment :      0.12875058
  |   Hirshfeld second moments:      0.12242418       0.00415526      -0.00575698
  |                                  0.00415526       0.12231063       0.00296886
  |                                 -0.00575698       0.00296886       0.09736185
  ----------------------------------------------------------------------


  Total energy components:
  | Sum of eigenvalues            :        -180.35714837 Ha       -4907.76771161 eV
  | XC energy correction          :         -42.63859461 Ha       -1160.25519252 eV
  | XC potential correction       :          54.81854013 Ha        1491.68837316 eV
  | Free-atom electrostatic energy:        -146.86367549 Ha       -3996.36394275 eV
  | Hartree energy correction     :          -8.43891971 Ha        -229.63468904 eV
  | vdW energy correction         :          -0.00334312 Ha          -0.09097085 eV
  | Entropy correction            :           0.00000000 Ha           0.00000000 eV
  | ---------------------------
  | Total energy                  :        -323.48314117 Ha       -8802.42413361 eV
  | Total energy, T -> 0          :        -323.48314117 Ha       -8802.42413361 eV  <-- do not rely on this value for anything but (periodic) metals
  | Electronic free energy        :        -323.48314117 Ha       -8802.42413361 eV

  Derived energy quantities:
  | Kinetic energy                :         322.57803371 Ha        8777.79490647 eV
  | Electrostatic energy          :        -603.41923715 Ha      -16419.87287671 eV
  | Energy correction for multipole
  | error in Hartree potential    :           0.04243988 Ha           1.15484794 eV
  | Sum of eigenvalues per atom                           :        -377.52059320 eV
  | Total energy (T->0) per atom                          :        -677.10954874 eV  <-- do not rely on this value for anything but (periodic) metals
  | Electronic free energy per atom                       :        -677.10954874 eV

  atomic forces [eV/Ang]:
  -----------------------
  atom #    1
   Hellmann-Feynman              :  0.928973E+00 -0.681870E-01  0.498956E+00
   Ionic forces                  :  0.000000E+00  0.000000E+00  0.000000E+00
   Multipole                     :  0.102602E+00  0.528658E+00 -0.251105E+00
   Pulay + GGA                   : -0.118044E+01 -0.183163E+00 -0.106487E+01
   Van der Waals                 :  0.589942E-02  0.516247E-02 -0.280198E-02
   ----------------------------------------------------------------
   Total forces(   1)            : -0.142964E+00  0.282471E+00 -0.819823E+00
  atom #    2
   Hellmann-Feynman              :  0.288690E+00  0.330585E-01  0.618393E-01
   Ionic forces                  :  0.000000E+00  0.000000E+00  0.000000E+00
   Multipole                     :  0.184368E+00  0.417435E-01  0.109626E-01
   Pulay + GGA                   : -0.129575E+00  0.677140E-02  0.401528E-01
   Van der Waals                 :  0.509892E-02 -0.422295E-02 -0.584944E-02
   ----------------------------------------------------------------
   Total forces(   2)            :  0.348583E+00  0.773504E-01  0.107105E+00
  atom #    3
   Hellmann-Feynman              : -0.575811E+01 -0.974557E+01 -0.100696E+01
   Ionic forces                  :  0.000000E+00  0.000000E+00  0.000000E+00
   Multipole                     : -0.162332E+00  0.114866E+00 -0.845469E+00
   Pulay + GGA                   :  0.615051E+01  0.946172E+01  0.253144E+01
   Van der Waals                 :  0.172125E-02 -0.823734E-02 -0.573054E-02
   ----------------------------------------------------------------
   Total forces(   3)            :  0.231780E+00 -0.177223E+00  0.673288E+00
  atom #    4
   Hellmann-Feynman              :  0.147052E+00  0.144540E+00 -0.183507E+00
   Ionic forces                  :  0.000000E+00  0.000000E+00  0.000000E+00
   Multipole                     : -0.508988E-01  0.669346E-01 -0.824406E-01
   Pulay + GGA                   :  0.656012E-01 -0.224451E+00  0.276773E-01
   Van der Waals                 : -0.103536E-02 -0.838149E-02 -0.488003E-02
   ----------------------------------------------------------------
   Total forces(   4)            :  0.160719E+00 -0.213579E-01 -0.243150E+00
  atom #    5
   Hellmann-Feynman              :  0.275443E-02  0.238637E+00 -0.217730E+00
   Ionic forces                  :  0.000000E+00  0.000000E+00  0.000000E+00
   Multipole                     :  0.381563E-01  0.197223E-01 -0.114064E+00
   Pulay + GGA                   : -0.187458E+00 -0.943452E-01  0.119484E+00
   Van der Waals                 : -0.388820E-02 -0.445034E-03  0.625856E-02
   ----------------------------------------------------------------
   Total forces(   5)            : -0.150436E+00  0.163569E+00 -0.206052E+00
  atom #    6
   Hellmann-Feynman              :  0.191128E+00 -0.558826E+00  0.407679E+00
   Ionic forces                  :  0.000000E+00  0.000000E+00  0.000000E+00
   Multipole                     : -0.366797E-01  0.596427E+00  0.254563E+00
   Pulay + GGA                   :  0.120701E+00 -0.527352E+00 -0.363488E+00
   Van der Waals                 : -0.323887E-02  0.474643E-02 -0.175664E-02
   ----------------------------------------------------------------
   Total forces(   6)            :  0.271911E+00 -0.485005E+00  0.296998E+00
  atom #    7
   Hellmann-Feynman              : -0.257915E+00 -0.551390E-01 -0.411849E-01
   Ionic forces                  :  0.000000E+00  0.000000E+00  0.000000E+00
   Multipole                     : -0.120502E+00  0.492579E-01  0.274133E-01
   Pulay + GGA                   :  0.107540E+00  0.131491E-01  0.214031E-01
   Van der Waals                 : -0.304476E-02  0.259730E-02  0.887278E-02
   ----------------------------------------------------------------
   Total forces(   7)            : -0.273922E+00  0.986532E-02  0.165043E-01
  atom #    8
   Hellmann-Feynman              :  0.358627E-02  0.142356E-01  0.211901E+00
   Ionic forces                  :  0.000000E+00  0.000000E+00  0.000000E+00
   Multipole                     :  0.172951E-01  0.619836E-01  0.115705E+00
   Pulay + GGA                   : -0.439107E-01 -0.494202E-01 -0.114538E+00
   Van der Waals                 : -0.307639E-02  0.113285E-01  0.627394E-03
   ----------------------------------------------------------------
   Total forces(   8)            : -0.261057E-01  0.381276E-01  0.213695E+00
  atom #    9
   Hellmann-Feynman              :  0.120689E+00  0.446843E-01 -0.178037E+00
   Ionic forces                  :  0.000000E+00  0.000000E+00  0.000000E+00
   Multipole                     :  0.161448E-01  0.127384E+00 -0.114046E-01
   Pulay + GGA                   : -0.307186E-01 -0.899359E-01  0.539674E-01
   Van der Waals                 :  0.266861E-03  0.602678E-02  0.698392E-02
   ----------------------------------------------------------------
   Total forces(   9)            :  0.106382E+00  0.881589E-01 -0.128491E+00
  atom #   10
   Hellmann-Feynman              :  0.287639E+01  0.514227E+01  0.112642E+01
   Ionic forces                  :  0.000000E+00  0.000000E+00  0.000000E+00
   Multipole                     :  0.679811E-01 -0.184178E+00  0.293895E+00
   Pulay + GGA                   : -0.104353E+01 -0.324219E+01 -0.439516E+00
   Van der Waals                 :  0.271975E-02 -0.113395E-01 -0.279186E-02
   ----------------------------------------------------------------
   Total forces(  10)            :  0.190356E+01  0.170456E+01  0.978012E+00
  atom #   11
   Hellmann-Feynman              :  0.426194E+01 -0.216100E+01  0.139555E+02
   Ionic forces                  :  0.000000E+00  0.000000E+00  0.000000E+00
   Multipole                     : -0.345684E-01 -0.672035E+00  0.806489E+00
   Pulay + GGA                   : -0.351962E+01  0.370474E+01 -0.132668E+02
   Van der Waals                 : -0.226821E-02 -0.119457E-01  0.302702E-02
   ----------------------------------------------------------------
   Total forces(  11)            :  0.705485E+00  0.859756E+00  0.149828E+01
  atom #   12
   Hellmann-Feynman              :  0.829915E-01 -0.654048E+01 -0.150538E+02
   Ionic forces                  :  0.000000E+00  0.000000E+00  0.000000E+00
   Multipole                     : -0.597939E+00 -0.123369E+01 -0.584061E+00
   Pulay + GGA                   : -0.216794E+01  0.646314E+01  0.133331E+02
   Van der Waals                 :  0.177236E-02  0.108187E-01  0.569242E-03
   ----------------------------------------------------------------
   Total forces(  12)            : -0.268112E+01 -0.130021E+01 -0.230413E+01
  atom #   13
   Hellmann-Feynman              : -0.717383E+00 -0.123850E+01  0.138999E+00
   Ionic forces                  :  0.000000E+00  0.000000E+00  0.000000E+00
   Multipole                     : -0.701954E-01 -0.134488E-02  0.215926E-01
   Pulay + GGA                   :  0.331348E+00 -0.428750E-02 -0.241723E+00
   Van der Waals                 : -0.926783E-03  0.389193E-02 -0.252841E-02
   ----------------------------------------------------------------
   Total forces(  13)            : -0.457157E+00 -0.124024E+01 -0.836603E-01

  Timings for VdW correction (Tkatchenko-Scheffler 2009 or later):
  | CPU time:        0.088 s, Wall clock time:        0.089 s.
  Removing unitary transformations (pure translations, rotations) from forces on atoms.
  Atomic forces before filtering:
  | Net force on center of mass :  -0.327936E-02 -0.169461E-03 -0.142489E-02 eV/A
  | Net torque on center of mass:  -0.896691E-02  0.396137E-02 -0.160293E-02 eV
  Atomic forces after filtering:
  | Net force on center of mass :  -0.446015E-15 -0.178406E-15  0.000000E+00 eV/A
  | Net torque on center of mass:  -0.283225E-15  0.684461E-15  0.132172E-14 eV

  Energy and forces in a compact form:
  | Total energy uncorrected      :         -0.880242413360871E+04 eV
  | Total energy corrected        :         -0.880242413360871E+04 eV  <-- do not rely on this value for anything but (periodic) metals
  | Electronic free energy        :         -0.880242413360871E+04 eV
  Total atomic forces (unitary forces cleaned) [eV/Ang]:
  |   1         -0.142693648925346E+00          0.282537578969679E+00         -0.819644139731490E+00
  |   2          0.348853083337892E+00          0.774760315681878E-01          0.107436844383366E+00
  |   3          0.232247625666672E+00         -0.176886140781253E+00          0.673399773798755E+00
  |   4          0.161162819473114E+00         -0.210240183687390E-01         -0.242952659828069E+00
  |   5         -0.149884016260238E+00          0.164078898669231E+00         -0.205817689551628E+00
  |   6          0.272011492226580E+00         -0.485117528159510E+00          0.297371611948186E+00
  |   7         -0.273824672009755E+00          0.969068632761841E-02          0.167310637787323E-01
  |   8         -0.261500291308568E-01          0.378185551044880E-01          0.214122130211609E+00
  |   9          0.106504252072589E+00          0.881715670671432E-01         -0.127877874685236E+00
  |  10          0.190379748770107E+01          0.170445185443947E+01          0.977865820197060E+00
  |  11          0.705576260632889E+00          0.859423031786628E+00          0.149811723908665E+01
  |  12         -0.268074036348592E+01         -0.130021552254287E+01         -0.230455513476546E+01
  |  13         -0.456860291298689E+00         -0.124040499408007E+01         -0.841969848424777E-01

  ------------------------------------ 
  Start decomposition of the XC Energy 
  ------------------------------------ 
  X and C from original XC functional choice 
  Hartree-Fock Energy :          0.000000000 Ha              0.000000000 eV
  X Energy            :        -41.038198862 Ha          -1116.706208413 eV
  C Energy            :         -1.600395750 Ha            -43.548984110 eV
  Total XC Energy     :        -42.638594612 Ha          -1160.255192524 eV
  ------------------------------------ 
  LDA X and C from self-consistent density 
  X Energy LDA        :        -37.256424175 Ha          -1013.798883325 eV
  C Energy LDA        :         -3.138582489 Ha            -85.405174895 eV
  ------------------------------------ 
  End decomposition of the XC Energy 
  ------------------------------------ 

------------------------------------------------------------

------------------------------------------------------------------------------
  Final output of selected total energy values:

  The following output summarizes some interesting total energy values
  at the end of a run (AFTER all relaxation, molecular dynamics, etc.).

  | Total energy of the DFT / Hartree-Fock s.c.f. calculation      :          -8802.424133609 eV
  | Final zero-broadening corrected energy (caution - metals only) :          -8802.424133609 eV
  | For reference only, the value of 1 Hartree used in FHI-aims is :             27.211384500 eV

  Before relying on these values, please be sure to understand exactly which
  total energy value is referred to by a given number. Different objects may
  all carry the same name 'total energy'. Definitions:

  Total energy of the DFT / Hartree-Fock s.c.f. calculation:
  | Note that this energy does not include ANY quantities calculated after the
  | s.c.f. cycle, in particular not ANY RPA, MP2, etc. many-body perturbation terms.

  Final zero-broadening corrected energy:
  | For metallic systems only, a broadening of the occupation numbers at the Fermi
  | level can be extrapolated back to zero broadening by an electron-gas inspired
  | formula. For all systems that are not real metals, this value can be
  | meaningless and should be avoided.

------------------------------------------------------------------------------
  Methods described in the following list of references were used in this FHI-aims run.
  If you publish the results, please make sure to cite these reference if they apply.
  FHI-aims is an academic code, and for our developers (often, Ph.D. students
  and postdocs), scientific credit in the community is essential.
  Thank you for helping us!

  For any use of FHI-aims, please cite:

    Volker Blum, Ralf Gehrke, Felix Hanke, Paula Havu, Ville Havu,
    Xinguo Ren, Karsten Reuter, and Matthias Scheffler
    'Ab initio molecular simulations with numeric atom-centered orbitals'
    Computer Physics Communications 180, 2175-2196 (2009)
    http://dx.doi.org/10.1016/j.cpc.2009.06.022


  The scalable eigensolver library ELPA was used in your run.
  ELPA is essential especially for large systems on hundreds or thousands of CPUs.
  For ELPA, please cite:

    Andreas Marek, Volker Blum, Rainer Johanni, Ville Havu, Bruno Lang,
    Thomas Auckenthaler, Alexander Heinecke, Hans-Joachim Bungartz, and Hermann Lederer,
    'The ELPA Library - Scalable Parallel Eigenvalue Solutions
    for Electronic Structure Theory and Computational Science'
    The Journal of Physics: Condensed Matter 26, 213201 (2014).
    http://dx.doi.org/10.1088/0953-8984/26/21/213201


  The ELSI infrastructure was used in your run to solve the Kohn-Sham electronic structure.
  Please check out http://elsi-interchange.org to learn more.
  If scalability is important for your project, please acknowledge ELSI by citing:

    V. W-z. Yu, F. Corsetti, A. Garcia, W. P. Huhn, M. Jacquelin, W. Jia,
    B. Lange, L. Lin, J. Lu, W. Mi, A. Seifitokaldani, A. Vazquez-Mayagoitia,
    C. Yang, H. Yang, and V. Blum
    'ELSI: A unified software interface for Kohn-Sham electronic structure solvers'
    Computer Physics Communications 222, 267-285 (2018).
    http://dx.doi.org/10.1016/j.cpc.2017.09.007


  For the real-space grid partitioning and parallelization used in this calculation, please cite:

    Ville Havu, Volker Blum, Paula Havu, and Matthias Scheffler,
    'Efficient O(N) integration for all-electron electronic structure calculation'
    'using numerically tabulated basis functions'
    Journal of Computational Physics 228, 8367-8379 (2009).
    http://dx.doi.org/10.1016/j.jcp.2009.08.008

  Of course, there are many other important community references, e.g., those cited in the
  above references. Our list is limited to references that describe implementations in the
  FHI-aims code. The reason is purely practical (length of this list) - please credit others as well.

------------------------------------------------------------
          Leaving FHI-aims.
          Date     :  20200710, Time     :  150958.689

          Computational steps:
          | Number of self-consistency cycles          :           15
          | Number of SCF (re)initializations          :            1

          Detailed time accounting                     :  max(cpu_time)    wall_clock(cpu1)
          | Total time                                 :       21.462 s          21.534 s
          | Preparation time                           :        0.145 s           0.147 s
          | Boundary condition initalization           :        0.000 s           0.000 s
          | Grid partitioning                          :        0.111 s           0.112 s
          | Preloading free-atom quantities on grid    :        0.002 s           0.003 s
          | Free-atom superposition energy             :        0.085 s           0.084 s
          | Total time for integrations                :        8.100 s           8.113 s
          | Total time for solution of K.-S. equations :        0.035 s           0.036 s
          | Total time for density & force components  :        6.722 s           6.733 s
          | Total time for mixing                      :        0.195 s           0.198 s
          | Total time for Hartree multipole update    :        0.131 s           0.131 s
          | Total time for Hartree multipole sum       :        5.539 s           5.544 s
          | Total time for total energy evaluation     :        0.003 s           0.003 s
          | Total time for vdW correction              :        0.088 s           0.089 s

          Partial memory accounting:
          | Residual value for overall tracked memory usage across tasks :           0.000 MB (should be 0.000 MB)
          | Peak values for overall tracked memory usage (after allocating hessian_basis_wave):
          |   Minimum:        1.622 MB (on task 1)
          |   Maximum:        1.622 MB (on task 1)
          |   Average:        1.622 MB
          | Largest tracked array allocation (hessian_basis_wave):
          |   Minimum:        0.794 MB (on task 1)
          |   Maximum:        0.794 MB (on task 1)
          |   Average:        0.794 MB
          Note:  These values currently only include a subset of arrays which are explicitly tracked.
          The "true" memory usage will be greater.

          Have a nice day.
------------------------------------------------------------
