  MPI-parallelism will be employed.
------------------------------------------------------------
          Invoking FHI-aims ...
          Version 171221_1
          Compiled on 2019/09/09 at 14:39:39 on host puhti-login2.bullx.

          When using FHI-aims, please cite the following reference:

          Volker Blum, Ralf Gehrke, Felix Hanke, Paula Havu,
          Ville Havu, Xinguo Ren, Karsten Reuter, and Matthias Scheffler,
          'Ab Initio Molecular Simulations with Numeric Atom-Centered Orbitals',
          Computer Physics Communications 180, 2175-2196 (2009)

          For any questions about FHI-aims, please visit the aimsclub website
          with its forums and wiki. Contributions to both the forums and the
          wiki are warmly encouraged - they are for you, and everyone is welcome there.

------------------------------------------------------------



  Date     :  20200805, Time     :  181413.679
  Time zero on CPU 1             :   0.105680000000000E-01  s.
  Internal wall clock time zero  :           365883253.679  s.

  FHI-aims created a unique identifier for this run for later identification
  aims_uuid : D105AD6A-F8A1-438A-ADA0-04505C1C7A66

  Using        1 parallel tasks.
  Task        0 on host r13c17.bullx reporting.

  Performing system and environment tests:
  | Environment variable OMP_NUM_THREADS correctly set to 1.
  | Stacksize not measured: no C compiler
  | Checking for scalapack...
  | Testing pdtran()...
  | All pdtran() tests passed.

  Obtaining array dimensions for all initial allocations:
  
  -----------------------------------------------------------------------
  Parsing control.in (first pass over file, find array dimensions only).
  The contents of control.in will be repeated verbatim below
  unless switched off by setting 'verbatim_writeout .false.' .
  in the first line of control.in .
  -----------------------------------------------------------------------
  
  #########################################################################################
  #
  #  Volker Blum, FHI 2009 : Test run input file control.in for simple H2O
  #
  #########################################################################################
  #
  #  Physical model
  #
    xc                 pbe
    vdw_correction_hirshfeld
    spin               none
    relativistic       none
    charge             0.
  #
  #  SCF convergence
  #
    occupation_type    gaussian 0.01
    mixer              pulay
      n_max_pulay        10
      charge_mix_param   0.2
    sc_accuracy_rho    1E-5
    sc_accuracy_eev    1E-3
    sc_accuracy_etot   1E-6
    sc_accuracy_forces 1E-4
    sc_iter_limit      100
  #
  #  Relaxation
  #
  #  relax_geometry   bfgs 1.e-3
  #
  ################################################################################
  #
  #  FHI-aims code project
  #  VB, Fritz-Haber Institut, 2009
  #
  #  Suggested "light" defaults for H atom (to be pasted into control.in file)
  #  Be sure to double-check any results obtained with these settings for post-processing,
  #  e.g., with the "tight" defaults and larger basis sets.
  #
  ################################################################################
    species        H
  #     global species definitions
      nucleus             1
      mass                1.00794
  #
      l_hartree           4
  #
      cut_pot             3.5  1.5  1.0
      basis_dep_cutoff    1e-4
  #
      radial_base         24 5.0
      radial_multiplier   1
      angular_grids       specified
        division   0.2421   50
        division   0.3822  110
        division   0.4799  194
        division   0.5341  302
  #      division   0.5626  434
  #      division   0.5922  590
  #      division   0.6542  770
  #      division   0.6868 1202
  #      outer_grid  770
        outer_grid  302
  ################################################################################
  #
  #  Definition of "minimal" basis
  #
  ################################################################################
  #     valence basis states
      valence      1  s   1.
  #     ion occupancy
      ion_occ      1  s   0.5
  ################################################################################
  #
  #  Suggested additional basis functions. For production calculations,
  #  uncomment them one after another (the most important basis functions are
  #  listed first).
  #
  #  Basis constructed for dimers: 0.5 A, 0.7 A, 1.0 A, 1.5 A, 2.5 A
  #
  ################################################################################
  #  "First tier" - improvements: -1014.90 meV to -62.69 meV
       hydro 2 s 2.1
       hydro 2 p 3.5
  #  "Second tier" - improvements: -12.89 meV to -1.83 meV
  #     hydro 1 s 0.85
  #     hydro 2 p 3.7
  #     hydro 2 s 1.2
  #     hydro 3 d 7
  #  "Third tier" - improvements: -0.25 meV to -0.12 meV
  #     hydro 4 f 11.2
  #     hydro 3 p 4.8
  #     hydro 4 d 9
  #     hydro 3 s 3.2
  ################################################################################
  #
  #  FHI-aims code project
  #  VB, Fritz-Haber Institut, 2009
  #
  #  Suggested "light" defaults for C atom (to be pasted into control.in file)
  #  Be sure to double-check any results obtained with these settings for post-processing,
  #  e.g., with the "tight" defaults and larger basis sets.
  #
  ################################################################################
    species        C
  #     global species definitions
      nucleus             6
      mass                12.0107
  #
      l_hartree           4
  #
      cut_pot             3.5  1.5  1.0
      basis_dep_cutoff    1e-4
  #
      radial_base         34 5.0
      radial_multiplier   1
      angular_grids specified
        division   0.3326   50
        division   0.5710  110
        division   0.7727  194
        division   0.8772  302
  #      division   0.9334  434
  #      division   0.9625  590
  #      division   0.9924  770
  #      division   1.0230  974
  #      division   1.4589 1202
  #     outer_grid  974
       outer_grid 302
  ################################################################################
  #
  #  Definition of "minimal" basis
  #
  ################################################################################
  #     valence basis states
      valence      2  s   2.
      valence      2  p   2.
  #     ion occupancy
      ion_occ      2  s   1.
      ion_occ      2  p   1.
  ################################################################################
  #
  #  Suggested additional basis functions. For production calculations,
  #  uncomment them one after another (the most important basis functions are
  #  listed first).
  #
  #  Constructed for dimers: 1.0 A, 1.25 A, 1.5 A, 2.0 A, 3.0 A
  #
  ################################################################################
  #  "First tier" - improvements: -1214.57 meV to -155.61 meV
       hydro 2 p 1.7
       hydro 3 d 6
       hydro 2 s 4.9
  #  "Second tier" - improvements: -67.75 meV to -5.23 meV
  #     hydro 4 f 9.8
  #     hydro 3 p 5.2
  #     hydro 3 s 4.3
  #     hydro 5 g 14.4
  #     hydro 3 d 6.2
  #  "Third tier" - improvements: -2.43 meV to -0.60 meV
  #     hydro 2 p 5.6
  #     hydro 2 s 1.4
  #     hydro 3 d 4.9
  #     hydro 4 f 11.2
  #  "Fourth tier" - improvements: -0.39 meV to -0.18 meV
  #     hydro 2 p 2.1
  #     hydro 5 g 16.4
  #     hydro 4 d 13.2
  #     hydro 3 s 13.6
  #     hydro 4 f 17.6
  #  Further basis functions - improvements: -0.08 meV and below
  #     hydro 3 s 2
  #     hydro 3 p 6
  #     hydro 4 d 20
  ################################################################################
  #
  #  FHI-aims code project
  #  VB, Fritz-Haber Institut, 2009
  #
  #  Suggested "light" defaults for N atom (to be pasted into control.in file)
  #  Be sure to double-check any results obtained with these settings for post-processing,
  #  e.g., with the "tight" defaults and larger basis sets.
  #
  ################################################################################
    species        N
  #     global species definitions
      nucleus             7
      mass                14.0067
  #
      l_hartree           4
  #
      cut_pot             3.5  1.5  1.0
      basis_dep_cutoff    1e-4
  #
      radial_base         35 5.0
      radial_multiplier   1
      angular_grids       specified
        division   0.2599   50
        division   0.4601  110
        division   0.5885  194
        division   0.6503  302
  #      division   0.6939  434
  #      division   0.7396  590
  #      division   0.7632  770
  #      division   0.8122  974
  #      division   1.1604 1202
  #      outer_grid  974
        outer_grid  302
  ################################################################################
  #
  #  Definition of "minimal" basis
  #
  ################################################################################
  #     valence basis states
      valence      2  s   2.
      valence      2  p   3.
  #     ion occupancy
      ion_occ      2  s   1.
      ion_occ      2  p   2.
  ################################################################################
  #
  #  Suggested additional basis functions. For production calculations,
  #  uncomment them one after another (the most important basis functions are
  #  listed first).
  #
  #  Constructed for dimers: 1.0 A, 1.1 A, 1.5 A, 2.0 A, 3.0 A
  #
  ################################################################################
  #  "First tier" - improvements: -1193.42 meV to -220.60 meV
       hydro 2 p 1.8
       hydro 3 d 6.8
       hydro 3 s 5.8
  #  "Second tier" - improvements: -80.21 meV to -6.86 meV
  #     hydro 4 f 10.8
  #     hydro 3 p 5.8
  #     hydro 1 s 0.8
  #     hydro 5 g 16
  #     hydro 3 d 4.9
  #  "Third tier" - improvements: -4.29 meV to -0.53 meV
  #     hydro 3 s 16
  #     ionic 2 p auto
  #     hydro 3 d 6.6
  #     hydro 4 f 11.6
  #  "Fourth tier" - improvements: -0.75 meV to -0.25 meV
  #     hydro 2 p 4.5
  #     hydro 2 s 2.4
  #     hydro 5 g 14.4
  #     hydro 4 d 14.4
  #     hydro 4 f 16.8
  # Further basis functions - -0.21 meV and below
  #     hydro 3 p 14.8
  #     hydro 3 s 4.4
  #     hydro 3 d 19.6
  #     hydro 5 g 12.8
  ################################################################################
  #
  #  FHI-aims code project
  #  VB, Fritz-Haber Institut, 2009
  #
  #  Suggested "light" defaults for O atom (to be pasted into control.in file)
  #  Be sure to double-check any results obtained with these settings for post-processing,
  #  e.g., with the "tight" defaults and larger basis sets.
  #
  ################################################################################
    species        O
  #     global species definitions
      nucleus             8
      mass                15.9994
  #
      l_hartree           4
  #
      cut_pot             3.5  1.5  1.0
      basis_dep_cutoff    1e-4
  #
      radial_base         36 5.0
      radial_multiplier   1
       angular_grids specified
        division   0.2659   50
        division   0.4451  110
        division   0.6052  194
        division   0.7543  302
  #      division   0.8014  434
  #      division   0.8507  590
  #      division   0.8762  770
  #      division   0.9023  974
  #      division   1.2339 1202
  #      outer_grid 974
        outer_grid 302
  ################################################################################
  #
  #  Definition of "minimal" basis
  #
  ################################################################################
  #     valence basis states
      valence      2  s   2.
      valence      2  p   4.
  #     ion occupancy
      ion_occ      2  s   1.
      ion_occ      2  p   3.
  ################################################################################
  #
  #  Suggested additional basis functions. For production calculations,
  #  uncomment them one after another (the most important basis functions are
  #  listed first).
  #
  #  Constructed for dimers: 1.0 A, 1.208 A, 1.5 A, 2.0 A, 3.0 A
  #
  ################################################################################
  #  "First tier" - improvements: -699.05 meV to -159.38 meV
       hydro 2 p 1.8
       hydro 3 d 7.6
       hydro 3 s 6.4
  #  "Second tier" - improvements: -49.91 meV to -5.39 meV
  #     hydro 4 f 11.6
  #     hydro 3 p 6.2
  #     hydro 3 d 5.6
  #     hydro 5 g 17.6
  #     hydro 1 s 0.75
  #  "Third tier" - improvements: -2.83 meV to -0.50 meV
  #     ionic 2 p auto
  #     hydro 4 f 10.8
  #     hydro 4 d 4.7
  #     hydro 2 s 6.8
  #  "Fourth tier" - improvements: -0.40 meV to -0.12 meV
  #     hydro 3 p 5
  #     hydro 3 s 3.3
  #     hydro 5 g 15.6
  #     hydro 4 f 17.6
  #     hydro 4 d 14
  # Further basis functions - -0.08 meV and below
  #     hydro 3 s 2.1
  #     hydro 4 d 11.6
  #     hydro 3 p 16
  #     hydro 2 s 17.2
  
  -----------------------------------------------------------------------
  Completed first pass over input file control.in .
  -----------------------------------------------------------------------
  
  
  -----------------------------------------------------------------------
  Parsing geometry.in (first pass over file, find array dimensions only).
  The contents of geometry.in will be repeated verbatim below
  unless switched off by setting 'verbatim_writeout .false.' .
  in the first line of geometry.in .
  -----------------------------------------------------------------------
  
  atom  0.00000 0.00000 0.00000 C
  atom  1.09300 0.00000 0.00000 H
  atom  -0.47961 0.00000 -1.41207 N
  atom  -1.36574 0.50461 -1.45653 H
  atom  0.21713 0.46058 -1.99392 H
  atom  -0.49584 1.26211 0.72868 C
  atom  -1.58789 1.28919 0.74431 H
  atom  -0.13407 1.27425 1.75947 H
  atom  -0.13407 2.16087 0.22380 H
  atom  -0.39425 -1.28861 0.74398 C
  atom  -0.10189 -1.56493 1.88303 O
  atom  -1.10210 -2.13717 0.06896 O
  atom  -1.28481 -1.58283 -0.70840 H
  
  -----------------------------------------------------------------------
  Completed first pass over input file geometry.in .
  -----------------------------------------------------------------------
  

  Basic array size parameters:
  | Number of species                 :        4
  | Number of atoms                   :       13
  | Max. basis fn. angular momentum   :        2
  | Max. atomic/ionic basis occupied n:        2
  | Max. number of basis fn. types    :        2
  | Max. radial fns per species/type  :        3
  | Max. logarithmic grid size        :     1301
  | Max. radial integration grid size :       36
  | Max. angular integration grid size:      302
  | Max. angular grid division number :        8
  | Radial grid for Hartree potential :     1301
  | Number of spin channels           :        1

------------------------------------------------------------
          Reading file control.in.
------------------------------------------------------------
  XC: Using PBE gradient-corrected functionals.
  Spin treatment: No spin polarisation.
  Non-relativistic treatment of kinetic energy.
  Charge =   0.000000E+00: Neutral system requested explicitly.
  Occupation type: Gaussian broadening, width =   0.100000E-01 eV.
  Using pulay charge density mixing.
  Pulay mixing - number of memorized iterations:   10
  Charge density mixing - mixing parameter:     0.2000
  Convergence accuracy of self-consistent charge density:  0.1000E-04
  Convergence accuracy of sum of eigenvalues:  0.1000E-02
  Convergence accuracy of total energy:  0.1000E-05
  Convergence accuracy of forces:  0.1000E-03
  Maximum number of s.-c. iterations  :   100
 
  Reading configuration options for species H                   .
  | Found nuclear charge :   1.0000
  | Found atomic mass :    1.00794000000000      amu
  | Found l_max for Hartree potential  :   4
  | Found cutoff potl. onset [A], width [A], scale factor :    3.50000    1.50000    1.00000
  | Threshold for basis-dependent cutoff potential is   0.100000E-03
  | Found data for basic radial integration grid :    24 points, outermost radius =    5.000 A
  | Found multiplier for basic radial grid :   1
  | Found angular grid specification: user-specified.
  | Specified grid contains     5 separate shells.
  | Check grid settings after all constraints further below.
  | Found free-atom valence shell :  1 s   1.000
  | No ionic wave fns used. Skipping ion_occ.
  | Found hydrogenic basis function :  2 s   2.100
  | Found hydrogenic basis function :  2 p   3.500
  Species H                   : Missing cutoff potential type.
  Defaulting to exp(1/x)/(1-x)^2 type cutoff potential.
  Species H : No 'logarithmic' tag. Using default grid for free atom:
  | Default logarithmic grid data [bohr] : 0.1000E-03 0.1000E+03 0.1012E+01
  Species H : On-site basis accuracy parameter (for Gram-Schmidt orthonormalisation) not specified.
  Using default value basis_acc =  0.1000000E-03.
  Species H                   : Using default innermost maximum threshold i_radial=  2 for radial functions.
  Species H                   : Default cutoff onset for free atom density etc. : 0.35000000E+01 AA.
  Species H                   : Basic radial grid will be enhanced according to radial_multiplier =   1, to contain    24 grid points.
 
  Reading configuration options for species C                   .
  | Found nuclear charge :   6.0000
  | Found atomic mass :    12.0107000000000      amu
  | Found l_max for Hartree potential  :   4
  | Found cutoff potl. onset [A], width [A], scale factor :    3.50000    1.50000    1.00000
  | Threshold for basis-dependent cutoff potential is   0.100000E-03
  | Found data for basic radial integration grid :    34 points, outermost radius =    5.000 A
  | Found multiplier for basic radial grid :   1
  | Found angular grid specification: user-specified.
  | Specified grid contains     5 separate shells.
  | Check grid settings after all constraints further below.
  | Found free-atom valence shell :  2 s   2.000
  | Found free-atom valence shell :  2 p   2.000
  | No ionic wave fns used. Skipping ion_occ.
  | No ionic wave fns used. Skipping ion_occ.
  | Found hydrogenic basis function :  2 p   1.700
  | Found hydrogenic basis function :  3 d   6.000
  | Found hydrogenic basis function :  2 s   4.900
  Species C                   : Missing cutoff potential type.
  Defaulting to exp(1/x)/(1-x)^2 type cutoff potential.
  Species C : No 'logarithmic' tag. Using default grid for free atom:
  | Default logarithmic grid data [bohr] : 0.1000E-03 0.1000E+03 0.1012E+01
  Species C : On-site basis accuracy parameter (for Gram-Schmidt orthonormalisation) not specified.
  Using default value basis_acc =  0.1000000E-03.
  Species C                   : Using default innermost maximum threshold i_radial=  2 for radial functions.
  Species C                   : Default cutoff onset for free atom density etc. : 0.35000000E+01 AA.
  Species C                   : Basic radial grid will be enhanced according to radial_multiplier =   1, to contain    34 grid points.
 
  Reading configuration options for species N                   .
  | Found nuclear charge :   7.0000
  | Found atomic mass :    14.0067000000000      amu
  | Found l_max for Hartree potential  :   4
  | Found cutoff potl. onset [A], width [A], scale factor :    3.50000    1.50000    1.00000
  | Threshold for basis-dependent cutoff potential is   0.100000E-03
  | Found data for basic radial integration grid :    35 points, outermost radius =    5.000 A
  | Found multiplier for basic radial grid :   1
  | Found angular grid specification: user-specified.
  | Specified grid contains     5 separate shells.
  | Check grid settings after all constraints further below.
  | Found free-atom valence shell :  2 s   2.000
  | Found free-atom valence shell :  2 p   3.000
  | No ionic wave fns used. Skipping ion_occ.
  | No ionic wave fns used. Skipping ion_occ.
  | Found hydrogenic basis function :  2 p   1.800
  | Found hydrogenic basis function :  3 d   6.800
  | Found hydrogenic basis function :  3 s   5.800
  Species N                   : Missing cutoff potential type.
  Defaulting to exp(1/x)/(1-x)^2 type cutoff potential.
  Species N : No 'logarithmic' tag. Using default grid for free atom:
  | Default logarithmic grid data [bohr] : 0.1000E-03 0.1000E+03 0.1012E+01
  Species N : On-site basis accuracy parameter (for Gram-Schmidt orthonormalisation) not specified.
  Using default value basis_acc =  0.1000000E-03.
  Species N                   : Using default innermost maximum threshold i_radial=  2 for radial functions.
  Species N                   : Default cutoff onset for free atom density etc. : 0.35000000E+01 AA.
  Species N                   : Basic radial grid will be enhanced according to radial_multiplier =   1, to contain    35 grid points.
 
  Reading configuration options for species O                   .
  | Found nuclear charge :   8.0000
  | Found atomic mass :    15.9994000000000      amu
  | Found l_max for Hartree potential  :   4
  | Found cutoff potl. onset [A], width [A], scale factor :    3.50000    1.50000    1.00000
  | Threshold for basis-dependent cutoff potential is   0.100000E-03
  | Found data for basic radial integration grid :    36 points, outermost radius =    5.000 A
  | Found multiplier for basic radial grid :   1
  | Found angular grid specification: user-specified.
  | Specified grid contains     5 separate shells.
  | Check grid settings after all constraints further below.
  | Found free-atom valence shell :  2 s   2.000
  | Found free-atom valence shell :  2 p   4.000
  | No ionic wave fns used. Skipping ion_occ.
  | No ionic wave fns used. Skipping ion_occ.
  | Found hydrogenic basis function :  2 p   1.800
  | Found hydrogenic basis function :  3 d   7.600
  | Found hydrogenic basis function :  3 s   6.400
  Species O                   : Missing cutoff potential type.
  Defaulting to exp(1/x)/(1-x)^2 type cutoff potential.
  Species O : No 'logarithmic' tag. Using default grid for free atom:
  | Default logarithmic grid data [bohr] : 0.1000E-03 0.1000E+03 0.1012E+01
  Species O : On-site basis accuracy parameter (for Gram-Schmidt orthonormalisation) not specified.
  Using default value basis_acc =  0.1000000E-03.
  Species O                   : Using default innermost maximum threshold i_radial=  2 for radial functions.
  Species O                   : Default cutoff onset for free atom density etc. : 0.35000000E+01 AA.
  Species O                   : Basic radial grid will be enhanced according to radial_multiplier =   1, to contain    36 grid points.
 
  Finished reading input file 'control.in'. Consistency checks are next.
 
  MPI_IN_PLACE appears to work with this MPI implementation.
  | Keeping use_mpi_in_place .true. (see manual).
  Target number of points in a grid batch is not set. Defaulting to  100
  Method for grid partitioning is not set. Defaulting to parallel hash+maxmin partitioning.
  Batch size limit is not set. Defaulting to    200
  By default, will store active basis functions for each batch.
  If in need of memory, prune_basis_once .false. can be used to disable this option.
  communication_type for Hartree potential was not specified.
  Defaulting to calc_hartree .
  Pulay mixer: Number of initial linear mixing iterations not set.
  Defaulting to    0 iterations.
  Work space size for distributed Hartree potential not set.
  Defaulting to   0.200000E+03 MB.
  Algorithm-dependent basis array size parameters:
  | n_max_pulay                         :       10
  Presetting      1001 iterations before the initial mixing cycle
  is restarted anyway using the sc_init_iter criterion / keyword.
  Presetting a factor      1.000 between actual scf density residual
  and density convergence criterion sc_accuracy_rho below which sc_init_iter
  takes no effect.
  Geometry relaxation not requested: no relaxation will be performed.
  Handling of forces: Unphysical translation and rotation will be removed from forces.
  No accuracy limit for integral partition fn. given. Defaulting to  0.1000E-14.
  No threshold value for u(r) in integrations given. Defaulting to  0.1000E-05.
  No accuracy for occupation numbers given. Defaulting to  0.1000E-12.
  No threshold value for occupation numbers given. Defaulting to  0.0000E+00.
  No accuracy for fermi level given. Defaulting to  0.1000E-19.
  Maximum # of iterations to find E_F not set. Defaulting to  200.
  Preferred method for the eigenvalue solver ('KS_method') not specified in 'control.in'.
  Defaulting to serial version, 'lapack_fast'.
  Will not use alltoall communication since running on < 1024 CPUs.
  Threshold for basis singularities not set.
  Default threshold for basis singularities:  0.1000E-04
  partition_type (choice of integration weights) for integrals was not specified.
  | Using a version of the partition function of Stratmann and coworkers ('stratmann_smoother').
  | At each grid point, the set of atoms used to build the partition table is smoothly restricted to
  | only those atoms whose free-atom density would be non-zero at that grid point.
  Partitioning for Hartree potential was not defined. Using partition_type for integrals.
  | Adjusted default value of keyword multip_moments_threshold to:       0.10000000E-11
  | This value may affect high angular momentum components of the Hartree potential in periodic systems.
  No q(lm)/r^(l+1) cutoff set for long-range Hartree potential.
  | Using default value of  0.100000E-09 .
  | Verify using the multipole_threshold keyword.
  Defaulting to new monopole extrapolation.
  Density update method: automatic selection selected.
------------------------------------------------------------


------------------------------------------------------------
          Reading geometry description geometry.in.
------------------------------------------------------------
  Input structure read successfully.
  The structure contains       13 atoms,  and a total of         48.000 electrons.

  Input geometry:
  | No unit cell requested.
  | Atomic structure:
  |       Atom                x [A]            y [A]            z [A]
  |    1: Species C             0.00000000        0.00000000        0.00000000
  |    2: Species H             1.09300000        0.00000000        0.00000000
  |    3: Species N            -0.47961000        0.00000000       -1.41207000
  |    4: Species H            -1.36574000        0.50461000       -1.45653000
  |    5: Species H             0.21713000        0.46058000       -1.99392000
  |    6: Species C            -0.49584000        1.26211000        0.72868000
  |    7: Species H            -1.58789000        1.28919000        0.74431000
  |    8: Species H            -0.13407000        1.27425000        1.75947000
  |    9: Species H            -0.13407000        2.16087000        0.22380000
  |   10: Species C            -0.39425000       -1.28861000        0.74398000
  |   11: Species O            -0.10189000       -1.56493000        1.88303000
  |   12: Species O            -1.10210000       -2.13717000        0.06896000
  |   13: Species H            -1.28481000       -1.58283000       -0.70840000
  |

  | The smallest distance between any two atoms is         0.97209277 AA.
  |
  | The first atom of this pair is atom number                     12 .
  | The second atom of this pair is atom number                    13 .

  Number of empty states per atom not set in control.in - providing a guess from actual geometry.
  | Total number of empty states used during s.c.f. cycle:       29
  If you use a very high smearing, use empty_states (per atom!) in control.in to increase this value.

  Structure-dependent array size parameters: 
  | Maximum number of distinct radial functions  :       21
  | Maximum number of basis functions            :      119
  | Number of Kohn-Sham states (occupied + empty):       53
------------------------------------------------------------

------------------------------------------------------------
          Preparing all fixed parts of the calculation.
------------------------------------------------------------
  Determining machine precision:
    2.225073858507201E-308
  Setting up grids for atomic and cluster calculations.

  Creating wave function, potential, and density for free atoms.

  Species: H

  List of occupied orbitals and eigenvalues:
    n    l              occ      energy [Ha]    energy [eV]
    1    0           1.0000        -0.237589        -6.4651


  Species: C

  List of occupied orbitals and eigenvalues:
    n    l              occ      energy [Ha]    energy [eV]
    1    0           2.0000       -10.038835      -273.1706
    2    0           2.0000        -0.502696       -13.6791
    2    1           2.0000        -0.191971        -5.2238


  Species: N

  List of occupied orbitals and eigenvalues:
    n    l              occ      energy [Ha]    energy [eV]
    1    0           2.0000       -14.128000      -384.4424
    2    0           2.0000        -0.681077       -18.5330
    2    1           3.0000        -0.259788        -7.0692


  Species: O

  List of occupied orbitals and eigenvalues:
    n    l              occ      energy [Ha]    energy [eV]
    1    0           2.0000       -18.898188      -514.2459
    2    0           2.0000        -0.878505       -23.9053
    2    1           4.0000        -0.331779        -9.0282

  Creating fixed part of basis set: Ionic, confined, hydrogenic.
 
  H                    hydrogenic:
 
  List of hydrogenic basis orbitals: 
    n    l      effective z      eigenvalue [eV]  inner max. [A]     outer max. [A]     outer radius [A]   
    2    0         2.100000       -14.9728           0.193243           1.317208           4.583499
    2    1         3.500000       -41.6669           0.602369           0.602369           3.723403
 
 
  C                    hydrogenic:
 
  List of hydrogenic basis orbitals: 
    n    l      effective z      eigenvalue [eV]  inner max. [A]     outer max. [A]     outer radius [A]   
    2    1         1.700000        -9.7616           1.230570           1.230570           4.607917
    3    2         6.000000       -54.4224           0.792453           0.792453           3.883070
    2    0         4.900000       -81.6679           0.082559           0.562749           3.078220
 
 
  N                    hydrogenic:
 
  List of hydrogenic basis orbitals: 
    n    l      effective z      eigenvalue [eV]  inner max. [A]     outer max. [A]     outer radius [A]   
    2    1         1.800000       -10.9749           1.177451           1.177451           4.573712
    3    2         6.800000       -69.9026           0.704619           0.704619           3.538137
    3    0         5.800000       -50.8545           0.067388           1.191934           4.250239
 
 
  O                    hydrogenic:
 
  List of hydrogenic basis orbitals: 
    n    l      effective z      eigenvalue [eV]  inner max. [A]     outer max. [A]     outer radius [A]   
    2    1         1.800000       -10.9749           1.164242           1.164242           4.578029
    3    2         7.600000       -87.3180           0.624125           0.624125           3.251020
    3    0         6.400000       -61.9207           0.061167           1.081902           4.001998
 

  Adding cutoff potential to free-atom effective potential.
  Creating atomic-like basis functions for current effective potential.

  Species H                   :

  List of atomic basis orbitals and eigenvalues:
    n    l      energy [Ha]    energy [eV]    outer radius [A]
    1    0        -0.237589        -6.4651       4.527807


  Species C                   :

  List of atomic basis orbitals and eigenvalues:
    n    l      energy [Ha]    energy [eV]    outer radius [A]
    1    0       -10.038835      -273.1706       1.934409
    2    0        -0.502696       -13.6791       4.496620
    2    1        -0.191971        -5.2238       4.551928


  Species N                   :

  List of atomic basis orbitals and eigenvalues:
    n    l      energy [Ha]    energy [eV]    outer radius [A]
    1    0       -14.128000      -384.4424       1.637919
    2    0        -0.681077       -18.5330       4.463241
    2    1        -0.259788        -7.0692       4.518138


  Species O                   :

  List of atomic basis orbitals and eigenvalues:
    n    l      energy [Ha]    energy [eV]    outer radius [A]
    1    0       -18.898188      -514.2459       1.415765
    2    0        -0.878505       -23.9053       4.413171
    2    1        -0.331779        -9.0282       4.522403

  Assembling full basis from fixed parts.
  | Species H :   atomic orbital   1 s accepted.
  | Species H :    hydro orbital   2 s accepted.
  | Species H :    hydro orbital   2 p accepted.
  | Species C :   atomic orbital   1 s accepted.
  | Species C :    hydro orbital   2 s accepted.
  | Species C :   atomic orbital   2 s accepted.
  | Species C :   atomic orbital   2 p accepted.
  | Species C :    hydro orbital   2 p accepted.
  | Species C :    hydro orbital   3 d accepted.
  | Species N :   atomic orbital   1 s accepted.
  | Species N :    hydro orbital   3 s accepted.
  | Species N :   atomic orbital   2 s accepted.
  | Species N :   atomic orbital   2 p accepted.
  | Species N :    hydro orbital   2 p accepted.
  | Species N :    hydro orbital   3 d accepted.
  | Species O :   atomic orbital   1 s accepted.
  | Species O :    hydro orbital   3 s accepted.
  | Species O :   atomic orbital   2 s accepted.
  | Species O :   atomic orbital   2 p accepted.
  | Species O :    hydro orbital   2 p accepted.
  | Species O :    hydro orbital   3 d accepted.
 
  Basis size parameters after reduction:
  | Total number of radial functions:       21
  | Total number of basis functions :      119
 
  Per-task memory consumption for arrays in subroutine allocate_ext:
  |           5.250512MB.
  Testing on-site integration grid accuracy.
  |  Species  Function  <phi|h_atom|phi> (log., in eV)  <phi|h_atom|phi> (rad., in eV)
           1        1                 -6.4663192853                 -6.4651273558
           1        2                 13.7111246313                 13.7170609718
           1        3                 25.2673269279                 25.2674696378
           2        4               -273.1705927641               -273.1705631568
           2        5                -10.7109323383                -10.7107120029
           2        6                 17.4381822266                 17.4352413244
           2        7                 -5.2255326521                 -5.2270484734
           2        8                  8.6835629259                  8.6603288385
           2        9                 27.4952418996                 27.4953360207
           3       10               -384.4424306495               -384.4423701208
           3       11                 12.5842251816                 12.5842222903
           3       12                -15.7264628251                -15.7264433455
           3       13                 -7.0696854293                 -7.0701769954
           3       14                  8.8090390882                  8.7901077751
           3       15                 35.9586762123                 35.9588528632
           4       16               -514.2458688638               -514.2457643834
           4       17                 15.1795651126                 15.1795290741
           4       18                -21.5359799773                -21.5360846186
           4       19                 -9.0283069236                 -9.0284644067
           4       20                  8.3027758564                  8.2834874195
           4       21                 45.8339351984                 45.8338762259

  Preparing densities etc. for the partition functions (integrals / Hartree potential).

  Preparations completed.
  max(cpu_time)          :      0.145 s.
  Wall clock time (cpu1) :      0.146 s.
------------------------------------------------------------

------------------------------------------------------------
          Begin self-consistency loop: Initialization.

          Date     :  20200805, Time     :  181413.838
------------------------------------------------------------

  Initializing index lists of integration centers etc. from given atomic structure:
  | Number of centers in hartree potential         :        13
  | Number of centers in hartree multipole         :        13
  | Number of centers in electron density summation:        13
  | Number of centers in basis integrals           :        13
  | Number of centers in integrals                 :        13
  | Number of centers in hamiltonian               :        13
  Partitioning the integration grid into batches with parallel hashing+maxmin method.
  | Number of batches:      959
  | Maximal batch size:     138
  | Minimal batch size:      66
  | Average batch size:      72.624
  | Standard deviation of batch sizes:      17.107

  Integration load balanced across     1 MPI tasks.
  Work distribution over tasks is as follows:
  Task     0 has      69646 integration points.
  Initializing partition tables, free-atom densities, potentials, etc. across the integration grid (initialize_grid_storage).
  | initialize_grid_storage: Actual outermost partition radius vs. multipole_radius_free
  | (-- VB: in principle, multipole_radius_free should be larger, hence this output)
  | Species        1: Confinement radius =              4.999999999999999 AA, multipole_radius_free =              5.054417573612229 AA.
  | Species        1: outer_partition_radius set to              5.054417573612229 AA .
  | Species        2: Confinement radius =              4.999999999999999 AA, multipole_radius_free =              5.019602836301480 AA.
  | Species        2: outer_partition_radius set to              5.019602836301480 AA .
  | Species        3: Confinement radius =              4.999999999999999 AA, multipole_radius_free =              5.043624274424571 AA.
  | Species        3: outer_partition_radius set to              5.043624274424571 AA .
  | Species        4: Confinement radius =              4.999999999999999 AA, multipole_radius_free =              5.048384829883283 AA.
  | Species        4: outer_partition_radius set to              5.048384829883283 AA .
  | Original list of interatomic distances with          13 x         13 entries is created.
  | Net number of integration points:    69646
  | of which are non-zero points    :    59414
  Renormalizing the initial density to the exact electron count on the 3D integration grid.
  | Initial density: Formal number of electrons (from input files) :      48.0000000000
  | Integrated number of electrons on 3D grid     :      47.9999508024
  | Charge integration error                      :      -0.0000491976
  | Normalization factor for density and gradient :       1.0000010250
  Obtaining max. number of non-zero basis functions in each batch (get_n_compute_maxes).
  | Maximal number of non-zero basis functions:      119 in task     0
  Selecting the method for density update.
  Loop over occupied states selected for charge density update.
  Allocating        0.050 MB for KS_eigenvector
  Integrating Hamiltonian matrix: batch-based integration.
  Time summed over all CPUs for integration: real work        0.498 s, elapsed        0.498 s
  Integrating overlap matrix.
  Time summed over all CPUs for integration: real work        0.213 s, elapsed        0.213 s

  Updating Kohn-Sham eigenvalues and eigenvectors using ELSI and the ELPA eigensolver.
  Overlap matrix is nonsingular
  | Lowest eigenvalue of overlap  :  0.43E-02
  | Highest eigenvalue of overlap :  0.64E+01
  Finished singularity check of overlap matrix
  | Time :     0.002 s
  Finished Cholesky decomposition
  | Time :     0.000 s
  Finished transformation to standard eigenproblem
  | Time :     0.000 s
  Starting LAPACK eigensolver
  Finished solving standard eigenproblem
  | Time :     0.002 s
  Finished back-transformation of eigenvectors
  | Time :     0.000 s

  Obtaining occupation numbers and chemical potential using ELSI.
  | Chemical potential (Fermi level):    -9.21456819eV
  Writing Kohn-Sham eigenvalues.

  State    Occupation    Eigenvalue [Ha]    Eigenvalue [eV]
      1       2.00000         -19.007500         -517.22039
      2       2.00000         -18.977118         -516.39364
      3       2.00000         -14.247678         -387.69905
      4       2.00000         -10.166857         -276.65426
      5       2.00000         -10.142024         -275.97853
      6       2.00000         -10.131892         -275.70280
      7       2.00000          -1.181384          -32.14710
      8       2.00000          -1.101432          -29.97149
      9       2.00000          -0.994252          -27.05498
     10       2.00000          -0.859054          -23.37605
     11       2.00000          -0.756403          -20.58278
     12       2.00000          -0.680301          -18.51192
     13       2.00000          -0.639998          -17.41522
     14       2.00000          -0.606924          -16.51523
     15       2.00000          -0.584773          -15.91247
     16       2.00000          -0.557073          -15.15873
     17       2.00000          -0.551144          -14.99740
     18       2.00000          -0.532677          -14.49489
     19       2.00000          -0.524235          -14.26516
     20       2.00000          -0.490938          -13.35911
     21       2.00000          -0.473503          -12.88467
     22       2.00000          -0.428245          -11.65315
     23       2.00000          -0.419079          -11.40371
     24       2.00000          -0.387403          -10.54178
     25       0.00000          -0.148146           -4.03126
     26       0.00000          -0.065108           -1.77168
     27       0.00000          -0.029061           -0.79079
     28       0.00000          -0.010794           -0.29372
     29       0.00000           0.005878            0.15996
     30       0.00000           0.013188            0.35886
     31       0.00000           0.018824            0.51223
     32       0.00000           0.035119            0.95562
     33       0.00000           0.039747            1.08158
     34       0.00000           0.068715            1.86983
     35       0.00000           0.085784            2.33431
     36       0.00000           0.132613            3.60857
     37       0.00000           0.174135            4.73845
     38       0.00000           0.196410            5.34460
     39       0.00000           0.203858            5.54727
     40       0.00000           0.224760            6.11604
     41       0.00000           0.239203            6.50906
     42       0.00000           0.266453            7.25056
     43       0.00000           0.287609            7.82625
     44       0.00000           0.310318            8.44419
     45       0.00000           0.336671            9.16129
     46       0.00000           0.355600            9.67636
     47       0.00000           0.365149            9.93622
     48       0.00000           0.383668           10.44012
     49       0.00000           0.415574           11.30834
     50       0.00000           0.497293           13.53204
     51       0.00000           0.533917           14.52861
     52       0.00000           0.559715           15.23063
     53       0.00000           0.579512           15.76932

  Highest occupied state (VBM) at    -10.54178434 eV
  | Occupation number:      2.00000000

  Lowest unoccupied state (CBM) at    -4.03126249 eV
  | Occupation number:      0.00000000

  Overall HOMO-LUMO gap:      6.51052186 eV.
  Calculating total energy contributions from superposition of free atom densities.

  Total energy components:
  | Sum of eigenvalues            :        -188.88377571 Ha       -5139.78904678 eV
  | XC energy correction          :         -41.80278482 Ha       -1137.51165104 eV
  | XC potential correction       :          53.73947909 Ha        1462.32562828 eV
  | Free-atom electrostatic energy:        -146.82464015 Ha       -3995.30173725 eV
  | Hartree energy correction     :           0.00000000 Ha           0.00000000 eV
  | vdW energy correction         :           0.00000000 Ha           0.00000000 eV
  | Entropy correction            :           0.00000000 Ha           0.00000000 eV
  | ---------------------------
  | Total energy                  :        -323.77172160 Ha       -8810.27680679 eV
  | Total energy, T -> 0          :        -323.77172160 Ha       -8810.27680679 eV  <-- do not rely on this value for anything but (periodic) metals
  | Electronic free energy        :        -323.77172160 Ha       -8810.27680679 eV

  Derived energy quantities:
  | Kinetic energy                :         320.51403118 Ha        8721.63054008 eV
  | Electrostatic energy          :        -602.48296796 Ha      -16394.39569584 eV
  | Energy correction for multipole
  | error in Hartree potential    :           0.00000000 Ha           0.00000000 eV
  | Sum of eigenvalues per atom                           :        -395.36838821 eV
  | Total energy (T->0) per atom                          :        -677.71360052 eV  <-- do not rely on this value for anything but (periodic) metals
  | Electronic free energy per atom                       :        -677.71360052 eV
  Initialize hartree_potential_storage
  Max. number of atoms included in rho_multipole:           13

  End scf initialization - timings             :  max(cpu_time)    wall_clock(cpu1)
  | Time for scf. initialization               :        1.153 s           1.155 s
  | Boundary condition initialization          :        0.000 s           0.000 s
  | Integration                                :        0.711 s           0.711 s
  | Solution of K.-S. eqns.                    :        0.004 s           0.004 s
  | Grid partitioning                          :        0.110 s           0.111 s
  | Preloading free-atom quantities on grid    :        0.002 s           0.002 s
  | Free-atom superposition energy             :        0.084 s           0.084 s
  | Total energy evaluation                    :        0.000 s           0.001 s

  Partial memory accounting:
  | Current value for overall tracked memory usage on task 0  :           0.165 MB
  | Peak value for overall tracked memory usage on task 0     :           0.676 MB after allocating wave
  | Largest tracked array allocation on task 0 so far         :           0.131 MB  when allocating H_times_psi
  Note:  These values currently only include a subset of arrays which are explicitly tracked.
  The "true" memory usage will be greater.
------------------------------------------------------------

------------------------------------------------------------
          Begin self-consistency iteration #    1

  Date     :  20200805, Time     :  181414.993
------------------------------------------------------------
  Evaluating new KS density.
  Integration grid: deviation in total charge (<rho> - N_e) =   0.000000E+00
  Pulay mixing of updated and previous charge densities.

  Evaluating partitioned Hartree potential by multipole expansion.
  | Analytical far-field extrapolation by fixed multipoles:
  | Hartree multipole sum: apparent total charge =  -0.154054E-03
  Summing up the Hartree potential.
  Time summed over all CPUs for potential: real work        0.281 s, elapsed        0.281 s
  | RMS charge density error from multipole expansion :   0.589384E-02

  Integrating Hamiltonian matrix: batch-based integration.
  Time summed over all CPUs for integration: real work        0.496 s, elapsed        0.496 s

  Updating Kohn-Sham eigenvalues and eigenvectors using ELSI and the ELPA eigensolver.
  Finished Cholesky decomposition
  | Time :     0.000 s
  Finished transformation to standard eigenproblem
  | Time :     0.000 s
  Starting LAPACK eigensolver
  Finished solving standard eigenproblem
  | Time :     0.001 s
  Finished back-transformation of eigenvectors
  | Time :     0.000 s

  Obtaining occupation numbers and chemical potential using ELSI.
  | Chemical potential (Fermi level):    -8.18755623eV
  Writing Kohn-Sham eigenvalues.

  State    Occupation    Eigenvalue [Ha]    Eigenvalue [eV]
      1       2.00000         -18.901308         -514.33075
      2       2.00000         -18.827167         -512.31327
      3       2.00000         -14.114515         -384.07549
      4       2.00000         -10.110093         -275.10962
      5       2.00000         -10.069252         -273.99828
      6       2.00000         -10.035316         -273.07485
      7       2.00000          -1.127748          -30.68759
      8       2.00000          -1.032154          -28.08634
      9       2.00000          -0.933970          -25.41462
     10       2.00000          -0.797968          -21.71382
     11       2.00000          -0.706007          -19.21143
     12       2.00000          -0.630967          -17.16949
     13       2.00000          -0.592785          -16.13050
     14       2.00000          -0.550030          -14.96707
     15       2.00000          -0.526167          -14.31774
     16       2.00000          -0.500326          -13.61456
     17       2.00000          -0.486503          -13.23842
     18       2.00000          -0.476822          -12.97498
     19       2.00000          -0.464703          -12.64520
     20       2.00000          -0.435577          -11.85265
     21       2.00000          -0.420714          -11.44820
     22       2.00000          -0.360764           -9.81689
     23       2.00000          -0.350129           -9.52750
     24       2.00000          -0.315993           -8.59861
     25       0.00000          -0.107206           -2.91721
     26       0.00000          -0.042693           -1.16172
     27       0.00000           0.011262            0.30645
     28       0.00000           0.013352            0.36333
     29       0.00000           0.038760            1.05471
     30       0.00000           0.045062            1.22620
     31       0.00000           0.051494            1.40123
     32       0.00000           0.065494            1.78218
     33       0.00000           0.076132            2.07165
     34       0.00000           0.104966            2.85626
     35       0.00000           0.125834            3.42411
     36       0.00000           0.163364            4.44537
     37       0.00000           0.203018            5.52439
     38       0.00000           0.225010            6.12283
     39       0.00000           0.232889            6.33722
     40       0.00000           0.257019            6.99383
     41       0.00000           0.271089            7.37671
     42       0.00000           0.298347            8.11843
     43       0.00000           0.320362            8.71750
     44       0.00000           0.349405            9.50780
     45       0.00000           0.375468           10.21699
     46       0.00000           0.393727           10.71385
     47       0.00000           0.401399           10.92263
     48       0.00000           0.424403           11.54860
     49       0.00000           0.453945           12.35247
     50       0.00000           0.530644           14.43956
     51       0.00000           0.565974           15.40094
     52       0.00000           0.590507           16.06851
     53       0.00000           0.613888           16.70473

  Highest occupied state (VBM) at     -8.59860998 eV
  | Occupation number:      2.00000000

  Lowest unoccupied state (CBM) at    -2.91721082 eV
  | Occupation number:      0.00000000

  Overall HOMO-LUMO gap:      5.68139916 eV.

  Total energy components:
  | Sum of eigenvalues            :        -185.53395342 Ha       -5048.63574439 eV
  | XC energy correction          :         -42.12735364 Ha       -1146.34361776 eV
  | XC potential correction       :          54.16156676 Ha        1473.81121822 eV
  | Free-atom electrostatic energy:        -146.82464015 Ha       -3995.30173725 eV
  | Hartree energy correction     :          -3.27223291 Ha         -89.04198802 eV
  | vdW energy correction         :           0.00000000 Ha           0.00000000 eV
  | Entropy correction            :           0.00000000 Ha           0.00000000 eV
  | ---------------------------
  | Total energy                  :        -323.59661337 Ha       -8805.51186920 eV
  | Total energy, T -> 0          :        -323.59661337 Ha       -8805.51186920 eV  <-- do not rely on this value for anything but (periodic) metals
  | Electronic free energy        :        -323.59661337 Ha       -8805.51186920 eV

  Derived energy quantities:
  | Kinetic energy                :         322.28084201 Ha        8769.70790905 eV
  | Electrostatic energy          :        -603.75010174 Ha      -16428.87616048 eV
  | Energy correction for multipole
  | error in Hartree potential    :           0.01157699 Ha           0.31502605 eV
  | Sum of eigenvalues per atom                           :        -388.35659572 eV
  | Total energy (T->0) per atom                          :        -677.34706686 eV  <-- do not rely on this value for anything but (periodic) metals
  | Electronic free energy per atom                       :        -677.34706686 eV

  Self-consistency convergence accuracy:
  | Change of charge density      :  0.5752E+00
  | Change of sum of eigenvalues  :  0.9115E+02 eV
  | Change of total energy        :  0.4765E+01 eV

  End self-consistency iteration #     1       :  max(cpu_time)    wall_clock(cpu1)
  | Time for this iteration                    :        1.191 s           1.191 s
  | Charge density update                      :        0.396 s           0.396 s
  | Density mixing                             :        0.006 s           0.006 s
  | Hartree multipole update                   :        0.009 s           0.009 s
  | Hartree multipole summation                :        0.282 s           0.282 s
  | Integration                                :        0.496 s           0.496 s
  | Solution of K.-S. eqns.                    :        0.002 s           0.002 s
  | Total energy evaluation                    :        0.000 s           0.000 s

  Partial memory accounting:
  | Current value for overall tracked memory usage on task 0  :           0.165 MB
  | Peak value for overall tracked memory usage on task 0     :           0.691 MB after allocating gradient_basis_wave
  | Largest tracked array allocation on task 0 so far         :           0.394 MB  when allocating gradient_basis_wave
  Note:  These values currently only include a subset of arrays which are explicitly tracked.
  The "true" memory usage will be greater.
------------------------------------------------------------

------------------------------------------------------------
          Begin self-consistency iteration #    2

  Date     :  20200805, Time     :  181416.185
------------------------------------------------------------
  Evaluating new KS density.
  Integration grid: deviation in total charge (<rho> - N_e) =   2.131628E-14
  Pulay mixing of updated and previous charge densities.

  Evaluating partitioned Hartree potential by multipole expansion.
  | Analytical far-field extrapolation by fixed multipoles:
  | Hartree multipole sum: apparent total charge =  -0.289306E-03
  Summing up the Hartree potential.
  Time summed over all CPUs for potential: real work        0.281 s, elapsed        0.281 s
  | RMS charge density error from multipole expansion :   0.140889E-01

  Integrating Hamiltonian matrix: batch-based integration.
  Time summed over all CPUs for integration: real work        0.495 s, elapsed        0.495 s

  Updating Kohn-Sham eigenvalues and eigenvectors using ELSI and the ELPA eigensolver.
  Finished Cholesky decomposition
  | Time :     0.000 s
  Finished transformation to standard eigenproblem
  | Time :     0.000 s
  Starting LAPACK eigensolver
  Finished solving standard eigenproblem
  | Time :     0.001 s
  Finished back-transformation of eigenvectors
  | Time :     0.000 s

  Obtaining occupation numbers and chemical potential using ELSI.
  | Chemical potential (Fermi level):    -2.90738790eV
  Highest occupied state (VBM) at     -6.64181706 eV
  | Occupation number:      2.00000000

  Lowest unoccupied state (CBM) at    -1.51816051 eV
  | Occupation number:      0.00000000

  Overall HOMO-LUMO gap:      5.12365655 eV.

  Checking to see if s.c.f. parameters should be adjusted.

  Total energy components:
  | Sum of eigenvalues            :        -181.96652406 Ha       -4951.56105226 eV
  | XC energy correction          :         -42.48571679 Ha       -1156.09517543 eV
  | XC potential correction       :          54.62604992 Ha        1486.45044801 eV
  | Free-atom electrostatic energy:        -146.82464015 Ha       -3995.30173725 eV
  | Hartree energy correction     :          -6.86905555 Ha        -186.91651181 eV
  | vdW energy correction         :           0.00000000 Ha           0.00000000 eV
  | Entropy correction            :           0.00000000 Ha           0.00000000 eV
  | ---------------------------
  | Total energy                  :        -323.51988664 Ha       -8803.42402875 eV
  | Total energy, T -> 0          :        -323.51988664 Ha       -8803.42402875 eV  <-- do not rely on this value for anything but (periodic) metals
  | Electronic free energy        :        -323.51988664 Ha       -8803.42402875 eV

  Derived energy quantities:
  | Kinetic energy                :         323.60212660 Ha        8805.66189195 eV
  | Electrostatic energy          :        -604.63629645 Ha      -16452.99074527 eV
  | Energy correction for multipole
  | error in Hartree potential    :           0.02549013 Ha           0.69362163 eV
  | Sum of eigenvalues per atom                           :        -380.88931171 eV
  | Total energy (T->0) per atom                          :        -677.18646375 eV  <-- do not rely on this value for anything but (periodic) metals
  | Electronic free energy per atom                       :        -677.18646375 eV

  Self-consistency convergence accuracy:
  | Change of charge density      :  0.3591E+00
  | Change of sum of eigenvalues  :  0.9707E+02 eV
  | Change of total energy        :  0.2088E+01 eV

  End self-consistency iteration #     2       :  max(cpu_time)    wall_clock(cpu1)
  | Time for this iteration                    :        1.180 s           1.181 s
  | Charge density update                      :        0.386 s           0.387 s
  | Density mixing                             :        0.007 s           0.006 s
  | Hartree multipole update                   :        0.009 s           0.008 s
  | Hartree multipole summation                :        0.281 s           0.281 s
  | Integration                                :        0.495 s           0.496 s
  | Solution of K.-S. eqns.                    :        0.002 s           0.002 s
  | Total energy evaluation                    :        0.000 s           0.000 s

  Partial memory accounting:
  | Current value for overall tracked memory usage on task 0  :           0.166 MB
  | Peak value for overall tracked memory usage on task 0     :           0.691 MB after allocating gradient_basis_wave
  | Largest tracked array allocation on task 0 so far         :           0.394 MB  when allocating gradient_basis_wave
  Note:  These values currently only include a subset of arrays which are explicitly tracked.
  The "true" memory usage will be greater.
------------------------------------------------------------

------------------------------------------------------------
          Begin self-consistency iteration #    3

  Date     :  20200805, Time     :  181417.367
------------------------------------------------------------
  Evaluating new KS density.
  Integration grid: deviation in total charge (<rho> - N_e) =   2.131628E-14
  Pulay mixing of updated and previous charge densities.

  Evaluating partitioned Hartree potential by multipole expansion.
  | Analytical far-field extrapolation by fixed multipoles:
  | Hartree multipole sum: apparent total charge =  -0.387114E-03
  Summing up the Hartree potential.
  Time summed over all CPUs for potential: real work        0.281 s, elapsed        0.281 s
  | RMS charge density error from multipole expansion :   0.223264E-01

  Integrating Hamiltonian matrix: batch-based integration.
  Time summed over all CPUs for integration: real work        0.501 s, elapsed        0.501 s

  Updating Kohn-Sham eigenvalues and eigenvectors using ELSI and the ELPA eigensolver.
  Finished Cholesky decomposition
  | Time :     0.000 s
  Finished transformation to standard eigenproblem
  | Time :     0.000 s
  Starting LAPACK eigensolver
  Finished solving standard eigenproblem
  | Time :     0.001 s
  Finished back-transformation of eigenvectors
  | Time :     0.000 s

  Obtaining occupation numbers and chemical potential using ELSI.
  | Chemical potential (Fermi level):    -2.35472426eV
  Highest occupied state (VBM) at     -5.99659393 eV
  | Occupation number:      2.00000000

  Lowest unoccupied state (CBM) at    -0.78199791 eV
  | Occupation number:      0.00000000

  Overall HOMO-LUMO gap:      5.21459601 eV.

  Total energy components:
  | Sum of eigenvalues            :        -180.62015896 Ha       -4914.92459383 eV
  | XC energy correction          :         -42.63899028 Ha       -1160.26595909 eV
  | XC potential correction       :          54.82150472 Ha        1491.76904387 eV
  | Free-atom electrostatic energy:        -146.82464015 Ha       -3995.30173725 eV
  | Hartree energy correction     :          -8.24546423 Ha        -224.37049749 eV
  | vdW energy correction         :           0.00000000 Ha           0.00000000 eV
  | Entropy correction            :           0.00000000 Ha           0.00000000 eV
  | ---------------------------
  | Total energy                  :        -323.50774889 Ha       -8803.09374380 eV
  | Total energy, T -> 0          :        -323.50774889 Ha       -8803.09374380 eV  <-- do not rely on this value for anything but (periodic) metals
  | Electronic free energy        :        -323.50774889 Ha       -8803.09374380 eV

  Derived energy quantities:
  | Kinetic energy                :         323.20114624 Ha        8794.75066109 eV
  | Electrostatic energy          :        -604.06990485 Ha      -16437.57844580 eV
  | Energy correction for multipole
  | error in Hartree potential    :           0.03587341 Ha           0.97616528 eV
  | Sum of eigenvalues per atom                           :        -378.07112260 eV
  | Total energy (T->0) per atom                          :        -677.16105722 eV  <-- do not rely on this value for anything but (periodic) metals
  | Electronic free energy per atom                       :        -677.16105722 eV

  Self-consistency convergence accuracy:
  | Change of charge density      :  0.1995E+00
  | Change of sum of eigenvalues  :  0.3664E+02 eV
  | Change of total energy        :  0.3303E+00 eV

  End self-consistency iteration #     3       :  max(cpu_time)    wall_clock(cpu1)
  | Time for this iteration                    :        1.182 s           1.189 s
  | Charge density update                      :        0.387 s           0.387 s
  | Density mixing                             :        0.008 s           0.008 s
  | Hartree multipole update                   :        0.009 s           0.009 s
  | Hartree multipole summation                :        0.281 s           0.281 s
  | Integration                                :        0.495 s           0.502 s
  | Solution of K.-S. eqns.                    :        0.002 s           0.002 s
  | Total energy evaluation                    :        0.000 s           0.000 s

  Partial memory accounting:
  | Current value for overall tracked memory usage on task 0  :           0.166 MB
  | Peak value for overall tracked memory usage on task 0     :           0.692 MB after allocating gradient_basis_wave
  | Largest tracked array allocation on task 0 so far         :           0.394 MB  when allocating gradient_basis_wave
  Note:  These values currently only include a subset of arrays which are explicitly tracked.
  The "true" memory usage will be greater.
------------------------------------------------------------

------------------------------------------------------------
          Begin self-consistency iteration #    4

  Date     :  20200805, Time     :  181418.557
------------------------------------------------------------
  Evaluating new KS density.
  Integration grid: deviation in total charge (<rho> - N_e) =   5.684342E-14
  Pulay mixing of updated and previous charge densities.

  Evaluating partitioned Hartree potential by multipole expansion.
  | Analytical far-field extrapolation by fixed multipoles:
  | Hartree multipole sum: apparent total charge =  -0.419120E-03
  Summing up the Hartree potential.
  Time summed over all CPUs for potential: real work        0.280 s, elapsed        0.280 s
  | RMS charge density error from multipole expansion :   0.258368E-01

  Integrating Hamiltonian matrix: batch-based integration.
  Time summed over all CPUs for integration: real work        0.494 s, elapsed        0.494 s

  Updating Kohn-Sham eigenvalues and eigenvectors using ELSI and the ELPA eigensolver.
  Finished Cholesky decomposition
  | Time :     0.000 s
  Finished transformation to standard eigenproblem
  | Time :     0.000 s
  Starting LAPACK eigensolver
  Finished solving standard eigenproblem
  | Time :     0.001 s
  Finished back-transformation of eigenvectors
  | Time :     0.000 s

  Obtaining occupation numbers and chemical potential using ELSI.
  | Chemical potential (Fermi level):    -2.25310891eV
  Highest occupied state (VBM) at     -5.70851809 eV
  | Occupation number:      2.00000000

  Lowest unoccupied state (CBM) at    -0.71332595 eV
  | Occupation number:      0.00000000

  Overall HOMO-LUMO gap:      4.99519215 eV.

  Total energy components:
  | Sum of eigenvalues            :        -180.53491769 Ha       -4912.60506091 eV
  | XC energy correction          :         -42.67256866 Ha       -1161.17967330 eV
  | XC potential correction       :          54.86348254 Ha        1492.91131829 eV
  | Free-atom electrostatic energy:        -146.82464015 Ha       -3995.30173725 eV
  | Hartree energy correction     :          -8.33814356 Ha        -226.89243030 eV
  | vdW energy correction         :           0.00000000 Ha           0.00000000 eV
  | Entropy correction            :           0.00000000 Ha           0.00000000 eV
  | ---------------------------
  | Total energy                  :        -323.50678752 Ha       -8803.06758347 eV
  | Total energy, T -> 0          :        -323.50678752 Ha       -8803.06758347 eV  <-- do not rely on this value for anything but (periodic) metals
  | Electronic free energy        :        -323.50678752 Ha       -8803.06758347 eV

  Derived energy quantities:
  | Kinetic energy                :         322.78624465 Ha        8783.46061454 eV
  | Electrostatic energy          :        -603.62046351 Ha      -16425.34852471 eV
  | Energy correction for multipole
  | error in Hartree potential    :           0.03969862 Ha           1.08025436 eV
  | Sum of eigenvalues per atom                           :        -377.89269699 eV
  | Total energy (T->0) per atom                          :        -677.15904488 eV  <-- do not rely on this value for anything but (periodic) metals
  | Electronic free energy per atom                       :        -677.15904488 eV

  Self-consistency convergence accuracy:
  | Change of charge density      :  0.6465E-01
  | Change of sum of eigenvalues  :  0.2320E+01 eV
  | Change of total energy        :  0.2616E-01 eV

  End self-consistency iteration #     4       :  max(cpu_time)    wall_clock(cpu1)
  | Time for this iteration                    :        1.182 s           1.182 s
  | Charge density update                      :        0.386 s           0.386 s
  | Density mixing                             :        0.009 s           0.010 s
  | Hartree multipole update                   :        0.009 s           0.009 s
  | Hartree multipole summation                :        0.281 s           0.281 s
  | Integration                                :        0.494 s           0.494 s
  | Solution of K.-S. eqns.                    :        0.002 s           0.002 s
  | Total energy evaluation                    :        0.000 s           0.000 s

  Partial memory accounting:
  | Current value for overall tracked memory usage on task 0  :           0.166 MB
  | Peak value for overall tracked memory usage on task 0     :           0.692 MB after allocating gradient_basis_wave
  | Largest tracked array allocation on task 0 so far         :           0.394 MB  when allocating gradient_basis_wave
  Note:  These values currently only include a subset of arrays which are explicitly tracked.
  The "true" memory usage will be greater.
------------------------------------------------------------

------------------------------------------------------------
          Begin self-consistency iteration #    5

  Date     :  20200805, Time     :  181419.740
------------------------------------------------------------
  Evaluating new KS density.
  Integration grid: deviation in total charge (<rho> - N_e) =   3.552714E-14
  Pulay mixing of updated and previous charge densities.

  Evaluating partitioned Hartree potential by multipole expansion.
  | Analytical far-field extrapolation by fixed multipoles:
  | Hartree multipole sum: apparent total charge =  -0.414515E-03
  Summing up the Hartree potential.
  Time summed over all CPUs for potential: real work        0.280 s, elapsed        0.280 s
  | RMS charge density error from multipole expansion :   0.255730E-01

  Integrating Hamiltonian matrix: batch-based integration.
  Time summed over all CPUs for integration: real work        0.494 s, elapsed        0.494 s

  Updating Kohn-Sham eigenvalues and eigenvectors using ELSI and the ELPA eigensolver.
  Finished Cholesky decomposition
  | Time :     0.000 s
  Finished transformation to standard eigenproblem
  | Time :     0.000 s
  Starting LAPACK eigensolver
  Finished solving standard eigenproblem
  | Time :     0.002 s
  Finished back-transformation of eigenvectors
  | Time :     0.000 s

  Obtaining occupation numbers and chemical potential using ELSI.
  | Chemical potential (Fermi level):    -2.29067961eV
  Highest occupied state (VBM) at     -5.82768316 eV
  | Occupation number:      2.00000000

  Lowest unoccupied state (CBM) at    -0.76906481 eV
  | Occupation number:      0.00000000

  Overall HOMO-LUMO gap:      5.05861835 eV.

  Total energy components:
  | Sum of eigenvalues            :        -180.66127890 Ha       -4916.04352452 eV
  | XC energy correction          :         -42.65576318 Ha       -1160.72237311 eV
  | XC potential correction       :          54.84171781 Ha        1492.31906994 eV
  | Free-atom electrostatic energy:        -146.82464015 Ha       -3995.30173725 eV
  | Hartree energy correction     :          -8.20652050 Ha        -223.31078465 eV
  | vdW energy correction         :           0.00000000 Ha           0.00000000 eV
  | Entropy correction            :           0.00000000 Ha           0.00000000 eV
  | ---------------------------
  | Total energy                  :        -323.50648493 Ha       -8803.05934959 eV
  | Total energy, T -> 0          :        -323.50648493 Ha       -8803.05934959 eV  <-- do not rely on this value for anything but (periodic) metals
  | Electronic free energy        :        -323.50648493 Ha       -8803.05934959 eV

  Derived energy quantities:
  | Kinetic energy                :         322.72378928 Ha        8781.76111739 eV
  | Electrostatic energy          :        -603.57451102 Ha      -16424.09809386 eV
  | Energy correction for multipole
  | error in Hartree potential    :           0.03915677 Ha           1.06550997 eV
  | Sum of eigenvalues per atom                           :        -378.15719419 eV
  | Total energy (T->0) per atom                          :        -677.15841151 eV  <-- do not rely on this value for anything but (periodic) metals
  | Electronic free energy per atom                       :        -677.15841151 eV

  Self-consistency convergence accuracy:
  | Change of charge density      :  0.2281E-01
  | Change of sum of eigenvalues  : -0.3438E+01 eV
  | Change of total energy        :  0.8234E-02 eV

  End self-consistency iteration #     5       :  max(cpu_time)    wall_clock(cpu1)
  | Time for this iteration                    :        1.183 s           1.184 s
  | Charge density update                      :        0.387 s           0.387 s
  | Density mixing                             :        0.011 s           0.011 s
  | Hartree multipole update                   :        0.009 s           0.009 s
  | Hartree multipole summation                :        0.281 s           0.280 s
  | Integration                                :        0.494 s           0.495 s
  | Solution of K.-S. eqns.                    :        0.002 s           0.002 s
  | Total energy evaluation                    :        0.000 s           0.000 s

  Partial memory accounting:
  | Current value for overall tracked memory usage on task 0  :           0.166 MB
  | Peak value for overall tracked memory usage on task 0     :           0.692 MB after allocating gradient_basis_wave
  | Largest tracked array allocation on task 0 so far         :           0.394 MB  when allocating gradient_basis_wave
  Note:  These values currently only include a subset of arrays which are explicitly tracked.
  The "true" memory usage will be greater.
------------------------------------------------------------

------------------------------------------------------------
          Begin self-consistency iteration #    6

  Date     :  20200805, Time     :  181420.925
------------------------------------------------------------
  Evaluating new KS density.
  Integration grid: deviation in total charge (<rho> - N_e) =  -1.421085E-14
  Pulay mixing of updated and previous charge densities.

  Evaluating partitioned Hartree potential by multipole expansion.
  | Analytical far-field extrapolation by fixed multipoles:
  | Hartree multipole sum: apparent total charge =  -0.415520E-03
  Summing up the Hartree potential.
  Time summed over all CPUs for potential: real work        0.280 s, elapsed        0.280 s
  | RMS charge density error from multipole expansion :   0.258185E-01

  Integrating Hamiltonian matrix: batch-based integration.
  Time summed over all CPUs for integration: real work        0.495 s, elapsed        0.495 s

  Updating Kohn-Sham eigenvalues and eigenvectors using ELSI and the ELPA eigensolver.
  Finished Cholesky decomposition
  | Time :     0.000 s
  Finished transformation to standard eigenproblem
  | Time :     0.000 s
  Starting LAPACK eigensolver
  Finished solving standard eigenproblem
  | Time :     0.001 s
  Finished back-transformation of eigenvectors
  | Time :     0.000 s

  Obtaining occupation numbers and chemical potential using ELSI.
  | Chemical potential (Fermi level):    -2.30084958eV
  Highest occupied state (VBM) at     -5.86772257 eV
  | Occupation number:      2.00000000

  Lowest unoccupied state (CBM) at    -0.80918751 eV
  | Occupation number:      0.00000000

  Overall HOMO-LUMO gap:      5.05853506 eV.

  Total energy components:
  | Sum of eigenvalues            :        -180.72902840 Ha       -4917.88708215 eV
  | XC energy correction          :         -42.64664872 Ha       -1160.47435590 eV
  | XC potential correction       :          54.82988924 Ha        1491.99719827 eV
  | Free-atom electrostatic energy:        -146.82464015 Ha       -3995.30173725 eV
  | Hartree energy correction     :          -8.13597218 Ha        -221.39106737 eV
  | vdW energy correction         :           0.00000000 Ha           0.00000000 eV
  | Entropy correction            :           0.00000000 Ha           0.00000000 eV
  | ---------------------------
  | Total energy                  :        -323.50640021 Ha       -8803.05704440 eV
  | Total energy, T -> 0          :        -323.50640021 Ha       -8803.05704440 eV  <-- do not rely on this value for anything but (periodic) metals
  | Electronic free energy        :        -323.50640021 Ha       -8803.05704440 eV

  Derived energy quantities:
  | Kinetic energy                :         322.62541259 Ha        8779.08415150 eV
  | Electrostatic energy          :        -603.48516409 Ha      -16421.66684000 eV
  | Energy correction for multipole
  | error in Hartree potential    :           0.03913831 Ha           1.06500758 eV
  | Sum of eigenvalues per atom                           :        -378.29900632 eV
  | Total energy (T->0) per atom                          :        -677.15823418 eV  <-- do not rely on this value for anything but (periodic) metals
  | Electronic free energy per atom                       :        -677.15823418 eV

  Self-consistency convergence accuracy:
  | Change of charge density      :  0.1115E-01
  | Change of sum of eigenvalues  : -0.1844E+01 eV
  | Change of total energy        :  0.2305E-02 eV

  End self-consistency iteration #     6       :  max(cpu_time)    wall_clock(cpu1)
  | Time for this iteration                    :        1.184 s           1.184 s
  | Charge density update                      :        0.386 s           0.386 s
  | Density mixing                             :        0.012 s           0.012 s
  | Hartree multipole update                   :        0.009 s           0.009 s
  | Hartree multipole summation                :        0.280 s           0.280 s
  | Integration                                :        0.495 s           0.495 s
  | Solution of K.-S. eqns.                    :        0.002 s           0.002 s
  | Total energy evaluation                    :        0.000 s           0.000 s

  Partial memory accounting:
  | Current value for overall tracked memory usage on task 0  :           0.166 MB
  | Peak value for overall tracked memory usage on task 0     :           0.692 MB after allocating gradient_basis_wave
  | Largest tracked array allocation on task 0 so far         :           0.394 MB  when allocating gradient_basis_wave
  Note:  These values currently only include a subset of arrays which are explicitly tracked.
  The "true" memory usage will be greater.
------------------------------------------------------------

------------------------------------------------------------
          Begin self-consistency iteration #    7

  Date     :  20200805, Time     :  181422.110
------------------------------------------------------------
  Evaluating new KS density.
  Integration grid: deviation in total charge (<rho> - N_e) =   7.105427E-14
  Pulay mixing of updated and previous charge densities.

  Evaluating partitioned Hartree potential by multipole expansion.
  | Analytical far-field extrapolation by fixed multipoles:
  | Hartree multipole sum: apparent total charge =  -0.417154E-03
  Summing up the Hartree potential.
  Time summed over all CPUs for potential: real work        0.280 s, elapsed        0.280 s
  | RMS charge density error from multipole expansion :   0.259778E-01

  Integrating Hamiltonian matrix: batch-based integration.
  Time summed over all CPUs for integration: real work        0.493 s, elapsed        0.493 s

  Updating Kohn-Sham eigenvalues and eigenvectors using ELSI and the ELPA eigensolver.
  Finished Cholesky decomposition
  | Time :     0.000 s
  Finished transformation to standard eigenproblem
  | Time :     0.000 s
  Starting LAPACK eigensolver
  Finished solving standard eigenproblem
  | Time :     0.001 s
  Finished back-transformation of eigenvectors
  | Time :     0.000 s

[...]
  |   Hirshfeld dipole moment :      0.06464856
  |   Hirshfeld second moments:     -0.00506247      -0.02487573      -0.01581445
  |                                 -0.02487573      -0.02836599       0.00668256
  |                                 -0.01581445       0.00668256      -0.02397934
  ----------------------------------------------------------------------
  | Atom    12: O
  |   Hirshfeld charge        :     -0.15047763
  |   Free atom volume        :     23.61338643
  |   Hirshfeld volume        :     21.27088900
  |   Hirshfeld dipole vector :      0.01487177       0.03794514      -0.00966142
  |   Hirshfeld dipole moment :      0.04188491
  |   Hirshfeld second moments:      0.05675592      -0.01445007       0.01942505
  |                                 -0.01445007       0.02712501       0.00720803
  |                                  0.01942505       0.00720803       0.06478515
  ----------------------------------------------------------------------
  | Atom    13: H
  |   Hirshfeld charge        :      0.12115829
  |   Free atom volume        :      9.95071624
  |   Hirshfeld volume        :      7.23149000
  |   Hirshfeld dipole vector :     -0.04902401       0.01913851      -0.05201444
  |   Hirshfeld dipole moment :      0.07399417
  |   Hirshfeld second moments:      0.10131295      -0.01352142       0.01474086
  |                                 -0.01352142       0.07119595       0.02977877
  |                                  0.01474086       0.02977877       0.06859097
  ----------------------------------------------------------------------


  Total energy components:
  | Sum of eigenvalues            :        -180.71600349 Ha       -4917.53265621 eV
  | XC energy correction          :         -42.64513450 Ha       -1160.43315202 eV
  | XC potential correction       :          54.82800140 Ha        1491.94582733 eV
  | Free-atom electrostatic energy:        -146.82464015 Ha       -3995.30173725 eV
  | Hartree energy correction     :          -8.14860468 Ha        -221.73481503 eV
  | vdW energy correction         :          -0.00350081 Ha          -0.09526184 eV
  | Entropy correction            :           0.00000000 Ha           0.00000000 eV
  | ---------------------------
  | Total energy                  :        -323.50988223 Ha       -8803.15179502 eV
  | Total energy, T -> 0          :        -323.50988223 Ha       -8803.15179502 eV  <-- do not rely on this value for anything but (periodic) metals
  | Electronic free energy        :        -323.50988223 Ha       -8803.15179502 eV

  Derived energy quantities:
  | Kinetic energy                :         322.58936197 Ha        8778.10316426 eV
  | Electrostatic energy          :        -603.45060890 Ha      -16420.72654543 eV
  | Energy correction for multipole
  | error in Hartree potential    :           0.03920186 Ha           1.06673692 eV
  | Sum of eigenvalues per atom                           :        -378.27174279 eV
  | Total energy (T->0) per atom                          :        -677.16552269 eV  <-- do not rely on this value for anything but (periodic) metals
  | Electronic free energy per atom                       :        -677.16552269 eV

  atomic forces [eV/Ang]:
  -----------------------
  atom #    1
   Hellmann-Feynman              :  0.477410E+00  0.422989E+00  0.172964E+01
   Ionic forces                  :  0.000000E+00  0.000000E+00  0.000000E+00
   Multipole                     : -0.511077E-01  0.413331E+00 -0.280274E+00
   Pulay + GGA                   : -0.755880E+00 -0.299437E-01 -0.158924E+01
   Van der Waals                 :  0.215824E-02  0.686355E-03 -0.113727E-02
   ----------------------------------------------------------------
   Total forces(   1)            : -0.327420E+00  0.807063E+00 -0.141012E+00
  atom #    2
   Hellmann-Feynman              :  0.196501E+00 -0.484814E-01 -0.152041E+00
   Ionic forces                  :  0.000000E+00  0.000000E+00  0.000000E+00
   Multipole                     :  0.193078E+00  0.342172E-01  0.138850E-01
   Pulay + GGA                   : -0.143118E+00 -0.558784E-02  0.610723E-01
   Van der Waals                 :  0.248819E-02 -0.507686E-02 -0.709856E-02
   ----------------------------------------------------------------
   Total forces(   2)            :  0.248950E+00 -0.249289E-01 -0.841822E-01
  atom #    3
   Hellmann-Feynman              : -0.188000E+01 -0.105669E+02 -0.121510E+01
   Ionic forces                  :  0.000000E+00  0.000000E+00  0.000000E+00
   Multipole                     : -0.102052E+00  0.519440E-01 -0.859148E+00
   Pulay + GGA                   :  0.201461E+01  0.984435E+01  0.278576E+01
   Van der Waals                 :  0.360535E-02 -0.525497E-02 -0.895013E-02
   ----------------------------------------------------------------
   Total forces(   3)            :  0.361651E-01 -0.675846E+00  0.702561E+00
  atom #    4
   Hellmann-Feynman              :  0.189907E-01  0.413360E+00 -0.154058E+00
   Ionic forces                  :  0.000000E+00  0.000000E+00  0.000000E+00
   Multipole                     : -0.807516E-01  0.468141E-01 -0.610980E-01
   Pulay + GGA                   :  0.174307E+00 -0.145045E+00 -0.125296E-02
   Van der Waals                 : -0.905819E-03 -0.151320E-02 -0.823411E-02
   ----------------------------------------------------------------
   Total forces(   4)            :  0.111640E+00  0.313616E+00 -0.224644E+00
  atom #    5
   Hellmann-Feynman              : -0.720589E-01  0.168611E+00 -0.267685E+00
   Ionic forces                  :  0.000000E+00  0.000000E+00  0.000000E+00
   Multipole                     :  0.267318E-01  0.292148E-01 -0.104967E+00
   Pulay + GGA                   : -0.138090E+00 -0.186833E+00  0.108415E+00
   Van der Waals                 : -0.287048E-02 -0.392970E-02  0.131330E-02
   ----------------------------------------------------------------
   Total forces(   5)            : -0.186288E+00  0.706307E-02 -0.262923E+00
  atom #    6
   Hellmann-Feynman              :  0.397814E+00 -0.596866E+00  0.397097E+00
   Ionic forces                  :  0.000000E+00  0.000000E+00  0.000000E+00
   Multipole                     : -0.100075E+00  0.606913E+00  0.230620E+00
   Pulay + GGA                   :  0.540823E-01 -0.403283E+00 -0.370720E+00
   Van der Waals                 : -0.386440E-02  0.765655E-02  0.404048E-02
   ----------------------------------------------------------------
   Total forces(   6)            :  0.347957E+00 -0.385580E+00  0.261038E+00
  atom #    7
   Hellmann-Feynman              : -0.253006E+00 -0.707155E-01 -0.508904E-01
   Ionic forces                  :  0.000000E+00  0.000000E+00  0.000000E+00
   Multipole                     : -0.120432E+00  0.502808E-01  0.313490E-01
   Pulay + GGA                   :  0.112364E+00  0.205743E-01  0.578433E-01
   Van der Waals                 : -0.185746E-02  0.222162E-02  0.688744E-02
   ----------------------------------------------------------------
   Total forces(   7)            : -0.262931E+00  0.236129E-02  0.451893E-01
  atom #    8
   Hellmann-Feynman              :  0.129508E-01  0.937484E-02  0.203440E+00
   Ionic forces                  :  0.000000E+00  0.000000E+00  0.000000E+00
   Multipole                     :  0.167165E-01  0.646529E-01  0.125409E+00
   Pulay + GGA                   : -0.520896E-01 -0.534917E-01 -0.113617E+00
   Van der Waals                 : -0.310826E-02  0.112459E-01  0.509703E-03
   ----------------------------------------------------------------
   Total forces(   8)            : -0.255306E-01  0.317820E-01  0.215741E+00
  atom #    9
   Hellmann-Feynman              :  0.109279E+00  0.642982E-01 -0.168194E+00
   Ionic forces                  :  0.000000E+00  0.000000E+00  0.000000E+00
   Multipole                     :  0.172054E-01  0.128850E+00 -0.914820E-02
   Pulay + GGA                   : -0.388398E-01 -0.733869E-01  0.575552E-01
   Van der Waals                 : -0.734217E-03  0.511667E-02  0.522561E-02
   ----------------------------------------------------------------
   Total forces(   9)            :  0.869103E-01  0.124878E+00 -0.114561E+00
  atom #   10
   Hellmann-Feynman              :  0.192849E+01  0.316727E+01  0.161840E+01
   Ionic forces                  :  0.000000E+00  0.000000E+00  0.000000E+00
   Multipole                     :  0.520345E-01 -0.102522E+00  0.244687E+00
   Pulay + GGA                   : -0.115079E+01 -0.251940E+01 -0.213062E+00
   Van der Waals                 :  0.502104E-02 -0.133097E-01 -0.468700E-03
   ----------------------------------------------------------------
   Total forces(  10)            :  0.834755E+00  0.532040E+00  0.164956E+01
  atom #   11
   Hellmann-Feynman              :  0.416212E+01 -0.230588E+01  0.143000E+02
   Ionic forces                  :  0.000000E+00  0.000000E+00  0.000000E+00
   Multipole                     :  0.766549E-01 -0.564943E+00  0.982279E+00
   Pulay + GGA                   : -0.330717E+01  0.354063E+01 -0.141427E+02
   Van der Waals                 : -0.950758E-03 -0.122528E-01  0.787071E-02
   ----------------------------------------------------------------
   Total forces(  11)            :  0.930659E+00  0.657558E+00  0.114744E+01
  atom #   12
   Hellmann-Feynman              : -0.518507E+01 -0.130347E+02  0.907713E+00
   Ionic forces                  :  0.000000E+00  0.000000E+00  0.000000E+00
   Multipole                     : -0.913615E+00 -0.150943E+01  0.450680E-01
   Pulay + GGA                   :  0.460727E+01  0.135474E+02 -0.242846E+01
   Van der Waals                 :  0.932594E-03  0.898599E-02  0.209944E-02
   ----------------------------------------------------------------
   Total forces(  12)            : -0.149049E+01 -0.987818E+00 -0.147358E+01
  atom #   13
   Hellmann-Feynman              : -0.457587E+00 -0.270067E+00 -0.194649E+01
   Ionic forces                  :  0.000000E+00  0.000000E+00  0.000000E+00
   Multipole                     : -0.915634E-02  0.919209E-01 -0.777845E-01
   Pulay + GGA                   :  0.161636E+00 -0.226041E+00  0.298552E+00
   Van der Waals                 :  0.859695E-04  0.542415E-02 -0.205790E-02
   ----------------------------------------------------------------
   Total forces(  13)            : -0.305021E+00 -0.398762E+00 -0.172778E+01

  Timings for VdW correction (Tkatchenko-Scheffler 2009 or later):
  | CPU time:        0.089 s, Wall clock time:        0.090 s.
  Removing unitary transformations (pure translations, rotations) from forces on atoms.
  Atomic forces before filtering:
  | Net force on center of mass :  -0.640977E-03  0.342656E-02 -0.715070E-02 eV/A
  | Net torque on center of mass:   0.722756E-02 -0.250694E-02  0.173230E-03 eV
  Atomic forces after filtering:
  | Net force on center of mass :   0.133805E-15  0.000000E+00 -0.356812E-15 eV/A
  | Net torque on center of mass:   0.991289E-15  0.000000E+00  0.188817E-15 eV

  Energy and forces in a compact form:
  | Total energy uncorrected      :         -0.880315179502498E+04 eV
  | Total energy corrected        :         -0.880315179502498E+04 eV  <-- do not rely on this value for anything but (periodic) metals
  | Electronic free energy        :         -0.880315179502498E+04 eV
  Total atomic forces (unitary forces cleaned) [eV/Ang]:
  |   1         -0.327374979644832E+00          0.806785201933041E+00         -0.140498820983999E+00
  |   2          0.248994393623333E+00         -0.252210196073451E-01         -0.837723370176867E-01
  |   3          0.360760408466742E-01         -0.676380226755292E+00          0.703119919985691E+00
  |   4          0.111553659240386E+00          0.313085082761605E+00         -0.224094773096363E+00
  |   5         -0.186425686526538E+00          0.641083988135409E-02         -0.262516236676244E+00
  |   6          0.348086915777239E+00         -0.385715697479757E+00          0.261363177666558E+00
  |   7         -0.262799178010095E+00          0.224313410648915E-02          0.456128100594424E-01
  |   8         -0.253025574106449E-01          0.318339422068283E-01          0.216029936986453E+00
  |   9          0.870045691889417E-01          0.124643805826531E+00         -0.114437971636391E+00
  |  10          0.834853011426111E+00          0.531905846814967E+00          0.165034957549203E+01
  |  11          0.930861600683245E+00          0.657632510794881E+00          0.114825940385541E+01
  |  12         -0.149046328240035E+01         -0.988068031359068E+00         -0.147256498291219E+01
  |  13         -0.305064506793465E+00         -0.399155389124234E+00         -0.172684970172271E+01

  ------------------------------------ 
  Start decomposition of the XC Energy 
  ------------------------------------ 
  X and C from original XC functional choice 
  Hartree-Fock Energy :          0.000000000 Ha              0.000000000 eV
  X Energy            :        -41.042152350 Ha          -1116.813788304 eV
  C Energy            :         -1.602982153 Ha            -43.619363717 eV
  Total XC Energy     :        -42.645134503 Ha          -1160.433152021 eV
  ------------------------------------ 
  LDA X and C from self-consistent density 
  X Energy LDA        :        -37.264242626 Ha          -1014.011634208 eV
  C Energy LDA        :         -3.139332416 Ha            -85.425581448 eV
  ------------------------------------ 
  End decomposition of the XC Energy 
  ------------------------------------ 

------------------------------------------------------------

------------------------------------------------------------------------------
  Final output of selected total energy values:

  The following output summarizes some interesting total energy values
  at the end of a run (AFTER all relaxation, molecular dynamics, etc.).

  | Total energy of the DFT / Hartree-Fock s.c.f. calculation      :          -8803.151795025 eV
  | Final zero-broadening corrected energy (caution - metals only) :          -8803.151795025 eV
  | For reference only, the value of 1 Hartree used in FHI-aims is :             27.211384500 eV

  Before relying on these values, please be sure to understand exactly which
  total energy value is referred to by a given number. Different objects may
  all carry the same name 'total energy'. Definitions:

  Total energy of the DFT / Hartree-Fock s.c.f. calculation:
  | Note that this energy does not include ANY quantities calculated after the
  | s.c.f. cycle, in particular not ANY RPA, MP2, etc. many-body perturbation terms.

  Final zero-broadening corrected energy:
  | For metallic systems only, a broadening of the occupation numbers at the Fermi
  | level can be extrapolated back to zero broadening by an electron-gas inspired
  | formula. For all systems that are not real metals, this value can be
  | meaningless and should be avoided.

------------------------------------------------------------------------------
  Methods described in the following list of references were used in this FHI-aims run.
  If you publish the results, please make sure to cite these reference if they apply.
  FHI-aims is an academic code, and for our developers (often, Ph.D. students
  and postdocs), scientific credit in the community is essential.
  Thank you for helping us!

  For any use of FHI-aims, please cite:

    Volker Blum, Ralf Gehrke, Felix Hanke, Paula Havu, Ville Havu,
    Xinguo Ren, Karsten Reuter, and Matthias Scheffler
    'Ab initio molecular simulations with numeric atom-centered orbitals'
    Computer Physics Communications 180, 2175-2196 (2009)
    http://dx.doi.org/10.1016/j.cpc.2009.06.022


  The scalable eigensolver library ELPA was used in your run.
  ELPA is essential especially for large systems on hundreds or thousands of CPUs.
  For ELPA, please cite:

    Andreas Marek, Volker Blum, Rainer Johanni, Ville Havu, Bruno Lang,
    Thomas Auckenthaler, Alexander Heinecke, Hans-Joachim Bungartz, and Hermann Lederer,
    'The ELPA Library - Scalable Parallel Eigenvalue Solutions
    for Electronic Structure Theory and Computational Science'
    The Journal of Physics: Condensed Matter 26, 213201 (2014).
    http://dx.doi.org/10.1088/0953-8984/26/21/213201


  The ELSI infrastructure was used in your run to solve the Kohn-Sham electronic structure.
  Please check out http://elsi-interchange.org to learn more.
  If scalability is important for your project, please acknowledge ELSI by citing:

    V. W-z. Yu, F. Corsetti, A. Garcia, W. P. Huhn, M. Jacquelin, W. Jia,
    B. Lange, L. Lin, J. Lu, W. Mi, A. Seifitokaldani, A. Vazquez-Mayagoitia,
    C. Yang, H. Yang, and V. Blum
    'ELSI: A unified software interface for Kohn-Sham electronic structure solvers'
    Computer Physics Communications 222, 267-285 (2018).
    http://dx.doi.org/10.1016/j.cpc.2017.09.007


  For the real-space grid partitioning and parallelization used in this calculation, please cite:

    Ville Havu, Volker Blum, Paula Havu, and Matthias Scheffler,
    'Efficient O(N) integration for all-electron electronic structure calculation'
    'using numerically tabulated basis functions'
    Journal of Computational Physics 228, 8367-8379 (2009).
    http://dx.doi.org/10.1016/j.jcp.2009.08.008

  Of course, there are many other important community references, e.g., those cited in the
  above references. Our list is limited to references that describe implementations in the
  FHI-aims code. The reason is purely practical (length of this list) - please credit others as well.

------------------------------------------------------------
          Leaving FHI-aims.
          Date     :  20200805, Time     :  181436.321

          Computational steps:
          | Number of self-consistency cycles          :           16
          | Number of SCF (re)initializations          :            1

          Detailed time accounting                     :  max(cpu_time)    wall_clock(cpu1)
          | Total time                                 :       22.600 s          22.642 s
          | Preparation time                           :        0.145 s           0.146 s
          | Boundary condition initalization           :        0.000 s           0.000 s
          | Grid partitioning                          :        0.110 s           0.111 s
          | Preloading free-atom quantities on grid    :        0.002 s           0.002 s
          | Free-atom superposition energy             :        0.084 s           0.084 s
          | Total time for integrations                :        8.617 s           8.629 s
          | Total time for solution of K.-S. equations :        0.036 s           0.038 s
          | Total time for density & force components  :        7.138 s           7.148 s
          | Total time for mixing                      :        0.212 s           0.214 s
          | Total time for Hartree multipole update    :        0.140 s           0.143 s
          | Total time for Hartree multipole sum       :        5.716 s           5.718 s
          | Total time for total energy evaluation     :        0.003 s           0.003 s
          | Total time for vdW correction              :        0.089 s           0.090 s

          Partial memory accounting:
          | Residual value for overall tracked memory usage across tasks :           0.000 MB (should be 0.000 MB)
          | Peak values for overall tracked memory usage (after allocating hessian_basis_wave):
          |   Minimum:        1.612 MB (on task 1)
          |   Maximum:        1.612 MB (on task 1)
          |   Average:        1.612 MB
          | Largest tracked array allocation (hessian_basis_wave):
          |   Minimum:        0.788 MB (on task 1)
          |   Maximum:        0.788 MB (on task 1)
          |   Average:        0.788 MB
          Note:  These values currently only include a subset of arrays which are explicitly tracked.
          The "true" memory usage will be greater.

          Have a nice day.
------------------------------------------------------------
