  MPI-parallelism will be employed.
------------------------------------------------------------
          Invoking FHI-aims ...
          Version 171221_1
          Compiled on 2019/09/09 at 14:39:39 on host puhti-login2.bullx.

          When using FHI-aims, please cite the following reference:

          Volker Blum, Ralf Gehrke, Felix Hanke, Paula Havu,
          Ville Havu, Xinguo Ren, Karsten Reuter, and Matthias Scheffler,
          'Ab Initio Molecular Simulations with Numeric Atom-Centered Orbitals',
          Computer Physics Communications 180, 2175-2196 (2009)

          For any questions about FHI-aims, please visit the aimsclub website
          with its forums and wiki. Contributions to both the forums and the
          wiki are warmly encouraged - they are for you, and everyone is welcome there.

------------------------------------------------------------



  Date     :  20200710, Time     :  152231.149
  Time zero on CPU 1             :   0.110650000000000E-01  s.
  Internal wall clock time zero  :           363626551.149  s.

  FHI-aims created a unique identifier for this run for later identification
  aims_uuid : 067ACB8A-D25D-40A0-A2FD-F6348526A505

  Using        1 parallel tasks.
  Task        0 on host r18c41.bullx reporting.

  Performing system and environment tests:
  | Environment variable OMP_NUM_THREADS correctly set to 1.
  | Stacksize not measured: no C compiler
  | Checking for scalapack...
  | Testing pdtran()...
  | All pdtran() tests passed.

  Obtaining array dimensions for all initial allocations:
  
  -----------------------------------------------------------------------
  Parsing control.in (first pass over file, find array dimensions only).
  The contents of control.in will be repeated verbatim below
  unless switched off by setting 'verbatim_writeout .false.' .
  in the first line of control.in .
  -----------------------------------------------------------------------
  
  #########################################################################################
  #
  #  Volker Blum, FHI 2009 : Test run input file control.in for simple H2O
  #
  #########################################################################################
  #
  #  Physical model
  #
    xc                 pbe
    vdw_correction_hirshfeld
    spin               none
    relativistic       none
    charge             0.
  #
  #  SCF convergence
  #
    occupation_type    gaussian 0.01
    mixer              pulay
      n_max_pulay        10
      charge_mix_param   0.2
    sc_accuracy_rho    1E-5
    sc_accuracy_eev    1E-3
    sc_accuracy_etot   1E-6
    sc_accuracy_forces 1E-4
    sc_iter_limit      100
  #
  #  Relaxation
  #
  #  relax_geometry   bfgs 1.e-3
  #
  ################################################################################
  #
  #  FHI-aims code project
  #  VB, Fritz-Haber Institut, 2009
  #
  #  Suggested "light" defaults for H atom (to be pasted into control.in file)
  #  Be sure to double-check any results obtained with these settings for post-processing,
  #  e.g., with the "tight" defaults and larger basis sets.
  #
  ################################################################################
    species        H
  #     global species definitions
      nucleus             1
      mass                1.00794
  #
      l_hartree           4
  #
      cut_pot             3.5  1.5  1.0
      basis_dep_cutoff    1e-4
  #
      radial_base         24 5.0
      radial_multiplier   1
      angular_grids       specified
        division   0.2421   50
        division   0.3822  110
        division   0.4799  194
        division   0.5341  302
  #      division   0.5626  434
  #      division   0.5922  590
  #      division   0.6542  770
  #      division   0.6868 1202
  #      outer_grid  770
        outer_grid  302
  ################################################################################
  #
  #  Definition of "minimal" basis
  #
  ################################################################################
  #     valence basis states
      valence      1  s   1.
  #     ion occupancy
      ion_occ      1  s   0.5
  ################################################################################
  #
  #  Suggested additional basis functions. For production calculations,
  #  uncomment them one after another (the most important basis functions are
  #  listed first).
  #
  #  Basis constructed for dimers: 0.5 A, 0.7 A, 1.0 A, 1.5 A, 2.5 A
  #
  ################################################################################
  #  "First tier" - improvements: -1014.90 meV to -62.69 meV
       hydro 2 s 2.1
       hydro 2 p 3.5
  #  "Second tier" - improvements: -12.89 meV to -1.83 meV
  #     hydro 1 s 0.85
  #     hydro 2 p 3.7
  #     hydro 2 s 1.2
  #     hydro 3 d 7
  #  "Third tier" - improvements: -0.25 meV to -0.12 meV
  #     hydro 4 f 11.2
  #     hydro 3 p 4.8
  #     hydro 4 d 9
  #     hydro 3 s 3.2
  ################################################################################
  #
  #  FHI-aims code project
  #  VB, Fritz-Haber Institut, 2009
  #
  #  Suggested "light" defaults for C atom (to be pasted into control.in file)
  #  Be sure to double-check any results obtained with these settings for post-processing,
  #  e.g., with the "tight" defaults and larger basis sets.
  #
  ################################################################################
    species        C
  #     global species definitions
      nucleus             6
      mass                12.0107
  #
      l_hartree           4
  #
      cut_pot             3.5  1.5  1.0
      basis_dep_cutoff    1e-4
  #
      radial_base         34 5.0
      radial_multiplier   1
      angular_grids specified
        division   0.3326   50
        division   0.5710  110
        division   0.7727  194
        division   0.8772  302
  #      division   0.9334  434
  #      division   0.9625  590
  #      division   0.9924  770
  #      division   1.0230  974
  #      division   1.4589 1202
  #     outer_grid  974
       outer_grid 302
  ################################################################################
  #
  #  Definition of "minimal" basis
  #
  ################################################################################
  #     valence basis states
      valence      2  s   2.
      valence      2  p   2.
  #     ion occupancy
      ion_occ      2  s   1.
      ion_occ      2  p   1.
  ################################################################################
  #
  #  Suggested additional basis functions. For production calculations,
  #  uncomment them one after another (the most important basis functions are
  #  listed first).
  #
  #  Constructed for dimers: 1.0 A, 1.25 A, 1.5 A, 2.0 A, 3.0 A
  #
  ################################################################################
  #  "First tier" - improvements: -1214.57 meV to -155.61 meV
       hydro 2 p 1.7
       hydro 3 d 6
       hydro 2 s 4.9
  #  "Second tier" - improvements: -67.75 meV to -5.23 meV
  #     hydro 4 f 9.8
  #     hydro 3 p 5.2
  #     hydro 3 s 4.3
  #     hydro 5 g 14.4
  #     hydro 3 d 6.2
  #  "Third tier" - improvements: -2.43 meV to -0.60 meV
  #     hydro 2 p 5.6
  #     hydro 2 s 1.4
  #     hydro 3 d 4.9
  #     hydro 4 f 11.2
  #  "Fourth tier" - improvements: -0.39 meV to -0.18 meV
  #     hydro 2 p 2.1
  #     hydro 5 g 16.4
  #     hydro 4 d 13.2
  #     hydro 3 s 13.6
  #     hydro 4 f 17.6
  #  Further basis functions - improvements: -0.08 meV and below
  #     hydro 3 s 2
  #     hydro 3 p 6
  #     hydro 4 d 20
  ################################################################################
  #
  #  FHI-aims code project
  #  VB, Fritz-Haber Institut, 2009
  #
  #  Suggested "light" defaults for N atom (to be pasted into control.in file)
  #  Be sure to double-check any results obtained with these settings for post-processing,
  #  e.g., with the "tight" defaults and larger basis sets.
  #
  ################################################################################
    species        N
  #     global species definitions
      nucleus             7
      mass                14.0067
  #
      l_hartree           4
  #
      cut_pot             3.5  1.5  1.0
      basis_dep_cutoff    1e-4
  #
      radial_base         35 5.0
      radial_multiplier   1
      angular_grids       specified
        division   0.2599   50
        division   0.4601  110
        division   0.5885  194
        division   0.6503  302
  #      division   0.6939  434
  #      division   0.7396  590
  #      division   0.7632  770
  #      division   0.8122  974
  #      division   1.1604 1202
  #      outer_grid  974
        outer_grid  302
  ################################################################################
  #
  #  Definition of "minimal" basis
  #
  ################################################################################
  #     valence basis states
      valence      2  s   2.
      valence      2  p   3.
  #     ion occupancy
      ion_occ      2  s   1.
      ion_occ      2  p   2.
  ################################################################################
  #
  #  Suggested additional basis functions. For production calculations,
  #  uncomment them one after another (the most important basis functions are
  #  listed first).
  #
  #  Constructed for dimers: 1.0 A, 1.1 A, 1.5 A, 2.0 A, 3.0 A
  #
  ################################################################################
  #  "First tier" - improvements: -1193.42 meV to -220.60 meV
       hydro 2 p 1.8
       hydro 3 d 6.8
       hydro 3 s 5.8
  #  "Second tier" - improvements: -80.21 meV to -6.86 meV
  #     hydro 4 f 10.8
  #     hydro 3 p 5.8
  #     hydro 1 s 0.8
  #     hydro 5 g 16
  #     hydro 3 d 4.9
  #  "Third tier" - improvements: -4.29 meV to -0.53 meV
  #     hydro 3 s 16
  #     ionic 2 p auto
  #     hydro 3 d 6.6
  #     hydro 4 f 11.6
  #  "Fourth tier" - improvements: -0.75 meV to -0.25 meV
  #     hydro 2 p 4.5
  #     hydro 2 s 2.4
  #     hydro 5 g 14.4
  #     hydro 4 d 14.4
  #     hydro 4 f 16.8
  # Further basis functions - -0.21 meV and below
  #     hydro 3 p 14.8
  #     hydro 3 s 4.4
  #     hydro 3 d 19.6
  #     hydro 5 g 12.8
  ################################################################################
  #
  #  FHI-aims code project
  #  VB, Fritz-Haber Institut, 2009
  #
  #  Suggested "light" defaults for O atom (to be pasted into control.in file)
  #  Be sure to double-check any results obtained with these settings for post-processing,
  #  e.g., with the "tight" defaults and larger basis sets.
  #
  ################################################################################
    species        O
  #     global species definitions
      nucleus             8
      mass                15.9994
  #
      l_hartree           4
  #
      cut_pot             3.5  1.5  1.0
      basis_dep_cutoff    1e-4
  #
      radial_base         36 5.0
      radial_multiplier   1
       angular_grids specified
        division   0.2659   50
        division   0.4451  110
        division   0.6052  194
        division   0.7543  302
  #      division   0.8014  434
  #      division   0.8507  590
  #      division   0.8762  770
  #      division   0.9023  974
  #      division   1.2339 1202
  #      outer_grid 974
        outer_grid 302
  ################################################################################
  #
  #  Definition of "minimal" basis
  #
  ################################################################################
  #     valence basis states
      valence      2  s   2.
      valence      2  p   4.
  #     ion occupancy
      ion_occ      2  s   1.
      ion_occ      2  p   3.
  ################################################################################
  #
  #  Suggested additional basis functions. For production calculations,
  #  uncomment them one after another (the most important basis functions are
  #  listed first).
  #
  #  Constructed for dimers: 1.0 A, 1.208 A, 1.5 A, 2.0 A, 3.0 A
  #
  ################################################################################
  #  "First tier" - improvements: -699.05 meV to -159.38 meV
       hydro 2 p 1.8
       hydro 3 d 7.6
       hydro 3 s 6.4
  #  "Second tier" - improvements: -49.91 meV to -5.39 meV
  #     hydro 4 f 11.6
  #     hydro 3 p 6.2
  #     hydro 3 d 5.6
  #     hydro 5 g 17.6
  #     hydro 1 s 0.75
  #  "Third tier" - improvements: -2.83 meV to -0.50 meV
  #     ionic 2 p auto
  #     hydro 4 f 10.8
  #     hydro 4 d 4.7
  #     hydro 2 s 6.8
  #  "Fourth tier" - improvements: -0.40 meV to -0.12 meV
  #     hydro 3 p 5
  #     hydro 3 s 3.3
  #     hydro 5 g 15.6
  #     hydro 4 f 17.6
  #     hydro 4 d 14
  # Further basis functions - -0.08 meV and below
  #     hydro 3 s 2.1
  #     hydro 4 d 11.6
  #     hydro 3 p 16
  #     hydro 2 s 17.2
  
  -----------------------------------------------------------------------
  Completed first pass over input file control.in .
  -----------------------------------------------------------------------
  
  
  -----------------------------------------------------------------------
  Parsing geometry.in (first pass over file, find array dimensions only).
  The contents of geometry.in will be repeated verbatim below
  unless switched off by setting 'verbatim_writeout .false.' .
  in the first line of geometry.in .
  -----------------------------------------------------------------------
  
  atom  0.00000 0.00000 0.00000 C
  atom  1.09300 0.00000 0.00000 H
  atom  -0.47961 0.00000 -1.41207 N
  atom  -1.45051 -0.31453 -1.42774 H
  atom  -0.41031 0.94623 -1.78081 H
  atom  -0.49584 1.26211 0.72868 C
  atom  -1.58789 1.28919 0.74431 H
  atom  -0.13407 1.27425 1.75947 H
  atom  -0.13407 2.16087 0.22380 H
  atom  -0.39425 -1.28861 0.74398 C
  atom  -0.10189 -1.56493 1.88303 O
  atom  -1.10210 -2.13717 0.06896 O
  atom  -0.45766 -2.86417 0.03499 H
  
  -----------------------------------------------------------------------
  Completed first pass over input file geometry.in .
  -----------------------------------------------------------------------
  

  Basic array size parameters:
  | Number of species                 :        4
  | Number of atoms                   :       13
  | Max. basis fn. angular momentum   :        2
  | Max. atomic/ionic basis occupied n:        2
  | Max. number of basis fn. types    :        2
  | Max. radial fns per species/type  :        3
  | Max. logarithmic grid size        :     1301
  | Max. radial integration grid size :       36
  | Max. angular integration grid size:      302
  | Max. angular grid division number :        8
  | Radial grid for Hartree potential :     1301
  | Number of spin channels           :        1

------------------------------------------------------------
          Reading file control.in.
------------------------------------------------------------
  XC: Using PBE gradient-corrected functionals.
  Spin treatment: No spin polarisation.
  Non-relativistic treatment of kinetic energy.
  Charge =   0.000000E+00: Neutral system requested explicitly.
  Occupation type: Gaussian broadening, width =   0.100000E-01 eV.
  Using pulay charge density mixing.
  Pulay mixing - number of memorized iterations:   10
  Charge density mixing - mixing parameter:     0.2000
  Convergence accuracy of self-consistent charge density:  0.1000E-04
  Convergence accuracy of sum of eigenvalues:  0.1000E-02
  Convergence accuracy of total energy:  0.1000E-05
  Convergence accuracy of forces:  0.1000E-03
  Maximum number of s.-c. iterations  :   100
 
  Reading configuration options for species H                   .
  | Found nuclear charge :   1.0000
  | Found atomic mass :    1.00794000000000      amu
  | Found l_max for Hartree potential  :   4
  | Found cutoff potl. onset [A], width [A], scale factor :    3.50000    1.50000    1.00000
  | Threshold for basis-dependent cutoff potential is   0.100000E-03
  | Found data for basic radial integration grid :    24 points, outermost radius =    5.000 A
  | Found multiplier for basic radial grid :   1
  | Found angular grid specification: user-specified.
  | Specified grid contains     5 separate shells.
  | Check grid settings after all constraints further below.
  | Found free-atom valence shell :  1 s   1.000
  | No ionic wave fns used. Skipping ion_occ.
  | Found hydrogenic basis function :  2 s   2.100
  | Found hydrogenic basis function :  2 p   3.500
  Species H                   : Missing cutoff potential type.
  Defaulting to exp(1/x)/(1-x)^2 type cutoff potential.
  Species H : No 'logarithmic' tag. Using default grid for free atom:
  | Default logarithmic grid data [bohr] : 0.1000E-03 0.1000E+03 0.1012E+01
  Species H : On-site basis accuracy parameter (for Gram-Schmidt orthonormalisation) not specified.
  Using default value basis_acc =  0.1000000E-03.
  Species H                   : Using default innermost maximum threshold i_radial=  2 for radial functions.
  Species H                   : Default cutoff onset for free atom density etc. : 0.35000000E+01 AA.
  Species H                   : Basic radial grid will be enhanced according to radial_multiplier =   1, to contain    24 grid points.
 
  Reading configuration options for species C                   .
  | Found nuclear charge :   6.0000
  | Found atomic mass :    12.0107000000000      amu
  | Found l_max for Hartree potential  :   4
  | Found cutoff potl. onset [A], width [A], scale factor :    3.50000    1.50000    1.00000
  | Threshold for basis-dependent cutoff potential is   0.100000E-03
  | Found data for basic radial integration grid :    34 points, outermost radius =    5.000 A
  | Found multiplier for basic radial grid :   1
  | Found angular grid specification: user-specified.
  | Specified grid contains     5 separate shells.
  | Check grid settings after all constraints further below.
  | Found free-atom valence shell :  2 s   2.000
  | Found free-atom valence shell :  2 p   2.000
  | No ionic wave fns used. Skipping ion_occ.
  | No ionic wave fns used. Skipping ion_occ.
  | Found hydrogenic basis function :  2 p   1.700
  | Found hydrogenic basis function :  3 d   6.000
  | Found hydrogenic basis function :  2 s   4.900
  Species C                   : Missing cutoff potential type.
  Defaulting to exp(1/x)/(1-x)^2 type cutoff potential.
  Species C : No 'logarithmic' tag. Using default grid for free atom:
  | Default logarithmic grid data [bohr] : 0.1000E-03 0.1000E+03 0.1012E+01
  Species C : On-site basis accuracy parameter (for Gram-Schmidt orthonormalisation) not specified.
  Using default value basis_acc =  0.1000000E-03.
  Species C                   : Using default innermost maximum threshold i_radial=  2 for radial functions.
  Species C                   : Default cutoff onset for free atom density etc. : 0.35000000E+01 AA.
  Species C                   : Basic radial grid will be enhanced according to radial_multiplier =   1, to contain    34 grid points.
 
  Reading configuration options for species N                   .
  | Found nuclear charge :   7.0000
  | Found atomic mass :    14.0067000000000      amu
  | Found l_max for Hartree potential  :   4
  | Found cutoff potl. onset [A], width [A], scale factor :    3.50000    1.50000    1.00000
  | Threshold for basis-dependent cutoff potential is   0.100000E-03
  | Found data for basic radial integration grid :    35 points, outermost radius =    5.000 A
  | Found multiplier for basic radial grid :   1
  | Found angular grid specification: user-specified.
  | Specified grid contains     5 separate shells.
  | Check grid settings after all constraints further below.
  | Found free-atom valence shell :  2 s   2.000
  | Found free-atom valence shell :  2 p   3.000
  | No ionic wave fns used. Skipping ion_occ.
  | No ionic wave fns used. Skipping ion_occ.
  | Found hydrogenic basis function :  2 p   1.800
  | Found hydrogenic basis function :  3 d   6.800
  | Found hydrogenic basis function :  3 s   5.800
  Species N                   : Missing cutoff potential type.
  Defaulting to exp(1/x)/(1-x)^2 type cutoff potential.
  Species N : No 'logarithmic' tag. Using default grid for free atom:
  | Default logarithmic grid data [bohr] : 0.1000E-03 0.1000E+03 0.1012E+01
  Species N : On-site basis accuracy parameter (for Gram-Schmidt orthonormalisation) not specified.
  Using default value basis_acc =  0.1000000E-03.
  Species N                   : Using default innermost maximum threshold i_radial=  2 for radial functions.
  Species N                   : Default cutoff onset for free atom density etc. : 0.35000000E+01 AA.
  Species N                   : Basic radial grid will be enhanced according to radial_multiplier =   1, to contain    35 grid points.
 
  Reading configuration options for species O                   .
  | Found nuclear charge :   8.0000
  | Found atomic mass :    15.9994000000000      amu
  | Found l_max for Hartree potential  :   4
  | Found cutoff potl. onset [A], width [A], scale factor :    3.50000    1.50000    1.00000
  | Threshold for basis-dependent cutoff potential is   0.100000E-03
  | Found data for basic radial integration grid :    36 points, outermost radius =    5.000 A
  | Found multiplier for basic radial grid :   1
  | Found angular grid specification: user-specified.
  | Specified grid contains     5 separate shells.
  | Check grid settings after all constraints further below.
  | Found free-atom valence shell :  2 s   2.000
  | Found free-atom valence shell :  2 p   4.000
  | No ionic wave fns used. Skipping ion_occ.
  | No ionic wave fns used. Skipping ion_occ.
  | Found hydrogenic basis function :  2 p   1.800
  | Found hydrogenic basis function :  3 d   7.600
  | Found hydrogenic basis function :  3 s   6.400
  Species O                   : Missing cutoff potential type.
  Defaulting to exp(1/x)/(1-x)^2 type cutoff potential.
  Species O : No 'logarithmic' tag. Using default grid for free atom:
  | Default logarithmic grid data [bohr] : 0.1000E-03 0.1000E+03 0.1012E+01
  Species O : On-site basis accuracy parameter (for Gram-Schmidt orthonormalisation) not specified.
  Using default value basis_acc =  0.1000000E-03.
  Species O                   : Using default innermost maximum threshold i_radial=  2 for radial functions.
  Species O                   : Default cutoff onset for free atom density etc. : 0.35000000E+01 AA.
  Species O                   : Basic radial grid will be enhanced according to radial_multiplier =   1, to contain    36 grid points.
 
  Finished reading input file 'control.in'. Consistency checks are next.
 
  MPI_IN_PLACE appears to work with this MPI implementation.
  | Keeping use_mpi_in_place .true. (see manual).
  Target number of points in a grid batch is not set. Defaulting to  100
  Method for grid partitioning is not set. Defaulting to parallel hash+maxmin partitioning.
  Batch size limit is not set. Defaulting to    200
  By default, will store active basis functions for each batch.
  If in need of memory, prune_basis_once .false. can be used to disable this option.
  communication_type for Hartree potential was not specified.
  Defaulting to calc_hartree .
  Pulay mixer: Number of initial linear mixing iterations not set.
  Defaulting to    0 iterations.
  Work space size for distributed Hartree potential not set.
  Defaulting to   0.200000E+03 MB.
  Algorithm-dependent basis array size parameters:
  | n_max_pulay                         :       10
  Presetting      1001 iterations before the initial mixing cycle
  is restarted anyway using the sc_init_iter criterion / keyword.
  Presetting a factor      1.000 between actual scf density residual
  and density convergence criterion sc_accuracy_rho below which sc_init_iter
  takes no effect.
  Geometry relaxation not requested: no relaxation will be performed.
  Handling of forces: Unphysical translation and rotation will be removed from forces.
  No accuracy limit for integral partition fn. given. Defaulting to  0.1000E-14.
  No threshold value for u(r) in integrations given. Defaulting to  0.1000E-05.
  No accuracy for occupation numbers given. Defaulting to  0.1000E-12.
  No threshold value for occupation numbers given. Defaulting to  0.0000E+00.
  No accuracy for fermi level given. Defaulting to  0.1000E-19.
  Maximum # of iterations to find E_F not set. Defaulting to  200.
  Preferred method for the eigenvalue solver ('KS_method') not specified in 'control.in'.
  Defaulting to serial version, 'lapack_fast'.
  Will not use alltoall communication since running on < 1024 CPUs.
  Threshold for basis singularities not set.
  Default threshold for basis singularities:  0.1000E-04
  partition_type (choice of integration weights) for integrals was not specified.
  | Using a version of the partition function of Stratmann and coworkers ('stratmann_smoother').
  | At each grid point, the set of atoms used to build the partition table is smoothly restricted to
  | only those atoms whose free-atom density would be non-zero at that grid point.
  Partitioning for Hartree potential was not defined. Using partition_type for integrals.
  | Adjusted default value of keyword multip_moments_threshold to:       0.10000000E-11
  | This value may affect high angular momentum components of the Hartree potential in periodic systems.
  No q(lm)/r^(l+1) cutoff set for long-range Hartree potential.
  | Using default value of  0.100000E-09 .
  | Verify using the multipole_threshold keyword.
  Defaulting to new monopole extrapolation.
  Density update method: automatic selection selected.
------------------------------------------------------------


------------------------------------------------------------
          Reading geometry description geometry.in.
------------------------------------------------------------
  Input structure read successfully.
  The structure contains       13 atoms,  and a total of         48.000 electrons.

  Input geometry:
  | No unit cell requested.
  | Atomic structure:
  |       Atom                x [A]            y [A]            z [A]
  |    1: Species C             0.00000000        0.00000000        0.00000000
  |    2: Species H             1.09300000        0.00000000        0.00000000
  |    3: Species N            -0.47961000        0.00000000       -1.41207000
  |    4: Species H            -1.45051000       -0.31453000       -1.42774000
  |    5: Species H            -0.41031000        0.94623000       -1.78081000
  |    6: Species C            -0.49584000        1.26211000        0.72868000
  |    7: Species H            -1.58789000        1.28919000        0.74431000
  |    8: Species H            -0.13407000        1.27425000        1.75947000
  |    9: Species H            -0.13407000        2.16087000        0.22380000
  |   10: Species C            -0.39425000       -1.28861000        0.74398000
  |   11: Species O            -0.10189000       -1.56493000        1.88303000
  |   12: Species O            -1.10210000       -2.13717000        0.06896000
  |   13: Species H            -0.45766000       -2.86417000        0.03499000
  |

  | The smallest distance between any two atoms is         0.97210384 AA.
  |
  | The first atom of this pair is atom number                     12 .
  | The second atom of this pair is atom number                    13 .

  Number of empty states per atom not set in control.in - providing a guess from actual geometry.
  | Total number of empty states used during s.c.f. cycle:       29
  If you use a very high smearing, use empty_states (per atom!) in control.in to increase this value.

  Structure-dependent array size parameters: 
  | Maximum number of distinct radial functions  :       21
  | Maximum number of basis functions            :      119
  | Number of Kohn-Sham states (occupied + empty):       53
------------------------------------------------------------

------------------------------------------------------------
          Preparing all fixed parts of the calculation.
------------------------------------------------------------
  Determining machine precision:
    2.225073858507201E-308
  Setting up grids for atomic and cluster calculations.

  Creating wave function, potential, and density for free atoms.

  Species: H

  List of occupied orbitals and eigenvalues:
    n    l              occ      energy [Ha]    energy [eV]
    1    0           1.0000        -0.237589        -6.4651


  Species: C

  List of occupied orbitals and eigenvalues:
    n    l              occ      energy [Ha]    energy [eV]
    1    0           2.0000       -10.038835      -273.1706
    2    0           2.0000        -0.502696       -13.6791
    2    1           2.0000        -0.191971        -5.2238


  Species: N

  List of occupied orbitals and eigenvalues:
    n    l              occ      energy [Ha]    energy [eV]
    1    0           2.0000       -14.128000      -384.4424
    2    0           2.0000        -0.681077       -18.5330
    2    1           3.0000        -0.259788        -7.0692


  Species: O

  List of occupied orbitals and eigenvalues:
    n    l              occ      energy [Ha]    energy [eV]
    1    0           2.0000       -18.898188      -514.2459
    2    0           2.0000        -0.878505       -23.9053
    2    1           4.0000        -0.331779        -9.0282

  Creating fixed part of basis set: Ionic, confined, hydrogenic.
 
  H                    hydrogenic:
 
  List of hydrogenic basis orbitals: 
    n    l      effective z      eigenvalue [eV]  inner max. [A]     outer max. [A]     outer radius [A]   
    2    0         2.100000       -14.9728           0.193243           1.317208           4.583499
    2    1         3.500000       -41.6669           0.602369           0.602369           3.723403
 
 
  C                    hydrogenic:
 
  List of hydrogenic basis orbitals: 
    n    l      effective z      eigenvalue [eV]  inner max. [A]     outer max. [A]     outer radius [A]   
    2    1         1.700000        -9.7616           1.230570           1.230570           4.607917
    3    2         6.000000       -54.4224           0.792453           0.792453           3.883070
    2    0         4.900000       -81.6679           0.082559           0.562749           3.078220
 
 
  N                    hydrogenic:
 
  List of hydrogenic basis orbitals: 
    n    l      effective z      eigenvalue [eV]  inner max. [A]     outer max. [A]     outer radius [A]   
    2    1         1.800000       -10.9749           1.177451           1.177451           4.573712
    3    2         6.800000       -69.9026           0.704619           0.704619           3.538137
    3    0         5.800000       -50.8545           0.067388           1.191934           4.250239
 
 
  O                    hydrogenic:
 
  List of hydrogenic basis orbitals: 
    n    l      effective z      eigenvalue [eV]  inner max. [A]     outer max. [A]     outer radius [A]   
    2    1         1.800000       -10.9749           1.164242           1.164242           4.578029
    3    2         7.600000       -87.3180           0.624125           0.624125           3.251020
    3    0         6.400000       -61.9207           0.061167           1.081902           4.001998
 

  Adding cutoff potential to free-atom effective potential.
  Creating atomic-like basis functions for current effective potential.

  Species H                   :

  List of atomic basis orbitals and eigenvalues:
    n    l      energy [Ha]    energy [eV]    outer radius [A]
    1    0        -0.237589        -6.4651       4.527807


  Species C                   :

  List of atomic basis orbitals and eigenvalues:
    n    l      energy [Ha]    energy [eV]    outer radius [A]
    1    0       -10.038835      -273.1706       1.934409
    2    0        -0.502696       -13.6791       4.496620
    2    1        -0.191971        -5.2238       4.551928


  Species N                   :

  List of atomic basis orbitals and eigenvalues:
    n    l      energy [Ha]    energy [eV]    outer radius [A]
    1    0       -14.128000      -384.4424       1.637919
    2    0        -0.681077       -18.5330       4.463241
    2    1        -0.259788        -7.0692       4.518138


  Species O                   :

  List of atomic basis orbitals and eigenvalues:
    n    l      energy [Ha]    energy [eV]    outer radius [A]
    1    0       -18.898188      -514.2459       1.415765
    2    0        -0.878505       -23.9053       4.413171
    2    1        -0.331779        -9.0282       4.522403

  Assembling full basis from fixed parts.
  | Species H :   atomic orbital   1 s accepted.
  | Species H :    hydro orbital   2 s accepted.
  | Species H :    hydro orbital   2 p accepted.
  | Species C :   atomic orbital   1 s accepted.
  | Species C :    hydro orbital   2 s accepted.
  | Species C :   atomic orbital   2 s accepted.
  | Species C :   atomic orbital   2 p accepted.
  | Species C :    hydro orbital   2 p accepted.
  | Species C :    hydro orbital   3 d accepted.
  | Species N :   atomic orbital   1 s accepted.
  | Species N :    hydro orbital   3 s accepted.
  | Species N :   atomic orbital   2 s accepted.
  | Species N :   atomic orbital   2 p accepted.
  | Species N :    hydro orbital   2 p accepted.
  | Species N :    hydro orbital   3 d accepted.
  | Species O :   atomic orbital   1 s accepted.
  | Species O :    hydro orbital   3 s accepted.
  | Species O :   atomic orbital   2 s accepted.
  | Species O :   atomic orbital   2 p accepted.
  | Species O :    hydro orbital   2 p accepted.
  | Species O :    hydro orbital   3 d accepted.
 
  Basis size parameters after reduction:
  | Total number of radial functions:       21
  | Total number of basis functions :      119
 
  Per-task memory consumption for arrays in subroutine allocate_ext:
  |           5.250512MB.
  Testing on-site integration grid accuracy.
  |  Species  Function  <phi|h_atom|phi> (log., in eV)  <phi|h_atom|phi> (rad., in eV)
           1        1                 -6.4663192853                 -6.4651273558
           1        2                 13.7111246313                 13.7170609718
           1        3                 25.2673269279                 25.2674696378
           2        4               -273.1705927641               -273.1705631568
           2        5                -10.7109323383                -10.7107120029
           2        6                 17.4381822266                 17.4352413244
           2        7                 -5.2255326521                 -5.2270484734
           2        8                  8.6835629259                  8.6603288385
           2        9                 27.4952418996                 27.4953360207
           3       10               -384.4424306495               -384.4423701208
           3       11                 12.5842251816                 12.5842222903
           3       12                -15.7264628251                -15.7264433455
           3       13                 -7.0696854293                 -7.0701769954
           3       14                  8.8090390882                  8.7901077751
           3       15                 35.9586762123                 35.9588528632
           4       16               -514.2458688638               -514.2457643834
           4       17                 15.1795651126                 15.1795290741
           4       18                -21.5359799773                -21.5360846186
           4       19                 -9.0283069236                 -9.0284644067
           4       20                  8.3027758564                  8.2834874195
           4       21                 45.8339351984                 45.8338762259

  Preparing densities etc. for the partition functions (integrals / Hartree potential).

  Preparations completed.
  max(cpu_time)          :      0.145 s.
  Wall clock time (cpu1) :      0.146 s.
------------------------------------------------------------

------------------------------------------------------------
          Begin self-consistency loop: Initialization.

          Date     :  20200710, Time     :  152231.309
------------------------------------------------------------

  Initializing index lists of integration centers etc. from given atomic structure:
  | Number of centers in hartree potential         :        13
  | Number of centers in hartree multipole         :        13
  | Number of centers in electron density summation:        13
  | Number of centers in basis integrals           :        13
  | Number of centers in integrals                 :        13
  | Number of centers in hamiltonian               :        13
  Partitioning the integration grid into batches with parallel hashing+maxmin method.
  | Number of batches:      954
  | Maximal batch size:     138
  | Minimal batch size:      66
  | Average batch size:      73.004
  | Standard deviation of batch sizes:      17.781

  Integration load balanced across     1 MPI tasks.
  Work distribution over tasks is as follows:
  Task     0 has      69646 integration points.
  Initializing partition tables, free-atom densities, potentials, etc. across the integration grid (initialize_grid_storage).
  | initialize_grid_storage: Actual outermost partition radius vs. multipole_radius_free
  | (-- VB: in principle, multipole_radius_free should be larger, hence this output)
  | Species        1: Confinement radius =              4.999999999999999 AA, multipole_radius_free =              5.054417573612229 AA.
  | Species        1: outer_partition_radius set to              5.054417573612229 AA .
  | Species        2: Confinement radius =              4.999999999999999 AA, multipole_radius_free =              5.019602836301480 AA.
  | Species        2: outer_partition_radius set to              5.019602836301480 AA .
  | Species        3: Confinement radius =              4.999999999999999 AA, multipole_radius_free =              5.043624274424571 AA.
  | Species        3: outer_partition_radius set to              5.043624274424571 AA .
  | Species        4: Confinement radius =              4.999999999999999 AA, multipole_radius_free =              5.048384829883283 AA.
  | Species        4: outer_partition_radius set to              5.048384829883283 AA .
  | Original list of interatomic distances with          13 x         13 entries is created.
  | Net number of integration points:    69646
  | of which are non-zero points    :    59513
  Renormalizing the initial density to the exact electron count on the 3D integration grid.
  | Initial density: Formal number of electrons (from input files) :      48.0000000000
  | Integrated number of electrons on 3D grid     :      47.9998545768
  | Charge integration error                      :      -0.0001454232
  | Normalization factor for density and gradient :       1.0000030297
  Obtaining max. number of non-zero basis functions in each batch (get_n_compute_maxes).
  | Maximal number of non-zero basis functions:      119 in task     0
  Selecting the method for density update.
  Loop over occupied states selected for charge density update.
  Allocating        0.050 MB for KS_eigenvector
  Integrating Hamiltonian matrix: batch-based integration.
  Time summed over all CPUs for integration: real work        0.490 s, elapsed        0.490 s
  Integrating overlap matrix.
  Time summed over all CPUs for integration: real work        0.209 s, elapsed        0.209 s

  Updating Kohn-Sham eigenvalues and eigenvectors using ELSI and the ELPA eigensolver.
  Overlap matrix is nonsingular
  | Lowest eigenvalue of overlap  :  0.52E-02
  | Highest eigenvalue of overlap :  0.62E+01
  Finished singularity check of overlap matrix
  | Time :     0.002 s
  Finished Cholesky decomposition
  | Time :     0.000 s
  Finished transformation to standard eigenproblem
  | Time :     0.000 s
  Starting LAPACK eigensolver
  Finished solving standard eigenproblem
  | Time :     0.002 s
  Finished back-transformation of eigenvectors
  | Time :     0.000 s

  Obtaining occupation numbers and chemical potential using ELSI.
  | Chemical potential (Fermi level):    -9.15798320eV
  Writing Kohn-Sham eigenvalues.

  State    Occupation    Eigenvalue [Ha]    Eigenvalue [eV]
      1       2.00000         -19.007820         -517.22910
      2       2.00000         -18.977553         -516.40550
      3       2.00000         -14.245799         -387.64792
      4       2.00000         -10.166819         -276.65321
      5       2.00000         -10.141268         -275.95794
      6       2.00000         -10.132016         -275.70619
      7       2.00000          -1.185127          -32.24896
      8       2.00000          -1.095456          -29.80887
      9       2.00000          -0.992023          -26.99432
     10       2.00000          -0.858439          -23.35931
     11       2.00000          -0.759830          -20.67604
     12       2.00000          -0.684271          -18.61996
     13       2.00000          -0.625083          -17.00938
     14       2.00000          -0.601806          -16.37596
     15       2.00000          -0.580584          -15.79850
     16       2.00000          -0.568312          -15.46455
     17       2.00000          -0.552579          -15.03644
     18       2.00000          -0.540560          -14.70938
     19       2.00000          -0.526503          -14.32687
     20       2.00000          -0.493533          -13.42971
     21       2.00000          -0.462638          -12.58901
     22       2.00000          -0.426938          -11.61757
     23       2.00000          -0.399122          -10.86066
     24       2.00000          -0.391303          -10.64790
     25       0.00000          -0.161432           -4.39278
     26       0.00000          -0.060950           -1.65854
     27       0.00000          -0.027511           -0.74860
     28       0.00000          -0.026309           -0.71592
     29       0.00000          -0.003965           -0.10790
     30       0.00000           0.008148            0.22173
     31       0.00000           0.027099            0.73739
     32       0.00000           0.038886            1.05815
     33       0.00000           0.042572            1.15843
     34       0.00000           0.058513            1.59221
     35       0.00000           0.079447            2.16187
     36       0.00000           0.133712            3.63850
     37       0.00000           0.162062            4.40994
     38       0.00000           0.203737            5.54395
     39       0.00000           0.215158            5.85475
     40       0.00000           0.226283            6.15747
     41       0.00000           0.252336            6.86640
     42       0.00000           0.277426            7.54914
     43       0.00000           0.291070            7.92042
     44       0.00000           0.311545            8.47758
     45       0.00000           0.326338            8.88011
     46       0.00000           0.345335            9.39704
     47       0.00000           0.376244           10.23812
     48       0.00000           0.385995           10.50345
     49       0.00000           0.419069           11.40346
     50       0.00000           0.474410           12.90935
     51       0.00000           0.521890           14.20135
     52       0.00000           0.549611           14.95569
     53       0.00000           0.581709           15.82912

  Highest occupied state (VBM) at    -10.64790354 eV
  | Occupation number:      2.00000000

  Lowest unoccupied state (CBM) at    -4.39278500 eV
  | Occupation number:      0.00000000

  Overall HOMO-LUMO gap:      6.25511854 eV.
  Calculating total energy contributions from superposition of free atom densities.

  Total energy components:
  | Sum of eigenvalues            :        -188.83076495 Ha       -5138.34655048 eV
  | XC energy correction          :         -41.78642384 Ha       -1137.06644590 eV
  | XC potential correction       :          53.71687277 Ha        1461.71047904 eV
  | Free-atom electrostatic energy:        -146.85972118 Ha       -3996.25634055 eV
  | Hartree energy correction     :           0.00000000 Ha           0.00000000 eV
  | vdW energy correction         :           0.00000000 Ha           0.00000000 eV
  | Entropy correction            :           0.00000000 Ha           0.00000000 eV
  | ---------------------------
  | Total energy                  :        -323.76003720 Ha       -8809.95885788 eV
  | Total energy, T -> 0          :        -323.76003720 Ha       -8809.95885788 eV  <-- do not rely on this value for anything but (periodic) metals
  | Electronic free energy        :        -323.76003720 Ha       -8809.95885788 eV

  Derived energy quantities:
  | Kinetic energy                :         320.49151975 Ha        8721.01797303 eV
  | Electrostatic energy          :        -602.46513311 Ha      -16393.91038502 eV
  | Energy correction for multipole
  | error in Hartree potential    :           0.00000000 Ha           0.00000000 eV
  | Sum of eigenvalues per atom                           :        -395.25742696 eV
  | Total energy (T->0) per atom                          :        -677.68914291 eV  <-- do not rely on this value for anything but (periodic) metals
  | Electronic free energy per atom                       :        -677.68914291 eV
  Initialize hartree_potential_storage
  Max. number of atoms included in rho_multipole:           13

  End scf initialization - timings             :  max(cpu_time)    wall_clock(cpu1)
  | Time for scf. initialization               :        1.137 s           1.145 s
  | Boundary condition initialization          :        0.000 s           0.000 s
  | Integration                                :        0.699 s           0.699 s
  | Solution of K.-S. eqns.                    :        0.004 s           0.005 s
  | Grid partitioning                          :        0.109 s           0.110 s
  | Preloading free-atom quantities on grid    :        0.002 s           0.002 s
  | Free-atom superposition energy             :        0.084 s           0.085 s
  | Total energy evaluation                    :        0.000 s           0.000 s

  Partial memory accounting:
  | Current value for overall tracked memory usage on task 0  :           0.165 MB
  | Peak value for overall tracked memory usage on task 0     :           0.676 MB after allocating wave
  | Largest tracked array allocation on task 0 so far         :           0.131 MB  when allocating H_times_psi
  Note:  These values currently only include a subset of arrays which are explicitly tracked.
  The "true" memory usage will be greater.
------------------------------------------------------------

------------------------------------------------------------
          Begin self-consistency iteration #    1

  Date     :  20200710, Time     :  152232.454
------------------------------------------------------------
  Evaluating new KS density.
  Integration grid: deviation in total charge (<rho> - N_e) =   4.263256E-14
  Pulay mixing of updated and previous charge densities.

  Evaluating partitioned Hartree potential by multipole expansion.
  | Analytical far-field extrapolation by fixed multipoles:
  | Hartree multipole sum: apparent total charge =  -0.255756E-03
  Summing up the Hartree potential.
  Time summed over all CPUs for potential: real work        0.278 s, elapsed        0.278 s
  | RMS charge density error from multipole expansion :   0.589204E-02

  Integrating Hamiltonian matrix: batch-based integration.
  Time summed over all CPUs for integration: real work        0.490 s, elapsed        0.490 s

  Updating Kohn-Sham eigenvalues and eigenvectors using ELSI and the ELPA eigensolver.
  Finished Cholesky decomposition
  | Time :     0.000 s
  Finished transformation to standard eigenproblem
  | Time :     0.000 s
  Starting LAPACK eigensolver
  Finished solving standard eigenproblem
  | Time :     0.002 s
  Finished back-transformation of eigenvectors
  | Time :     0.000 s

  Obtaining occupation numbers and chemical potential using ELSI.
  | Chemical potential (Fermi level):    -7.98427624eV
  Writing Kohn-Sham eigenvalues.

  State    Occupation    Eigenvalue [Ha]    Eigenvalue [eV]
      1       2.00000         -18.898210         -514.24646
      2       2.00000         -18.840285         -512.67023
      3       2.00000         -14.094855         -383.54052
      4       2.00000         -10.118088         -275.32717
      5       2.00000         -10.062288         -273.80878
      6       2.00000         -10.031120         -272.96066
      7       2.00000          -1.135012          -30.88524
      8       2.00000          -1.033152          -28.11350
      9       2.00000          -0.921065          -25.06345
     10       2.00000          -0.792063          -21.55314
     11       2.00000          -0.708251          -19.27248
     12       2.00000          -0.638352          -17.37043
     13       2.00000          -0.569016          -15.48372
     14       2.00000          -0.541068          -14.72322
     15       2.00000          -0.523650          -14.24925
     16       2.00000          -0.507682          -13.81472
     17       2.00000          -0.492073          -13.39000
     18       2.00000          -0.476289          -12.96050
     19       2.00000          -0.465077          -12.65539
     20       2.00000          -0.437655          -11.90921
     21       2.00000          -0.403183          -10.97116
     22       2.00000          -0.369854          -10.06424
     23       2.00000          -0.328884           -8.94939
     24       2.00000          -0.314439           -8.55633
     25       0.00000          -0.126974           -3.45513
     26       0.00000          -0.036581           -0.99541
     27       0.00000          -0.005469           -0.14883
     28       0.00000           0.016565            0.45077
     29       0.00000           0.026980            0.73416
     30       0.00000           0.045799            1.24626
     31       0.00000           0.061576            1.67558
     32       0.00000           0.078266            2.12974
     33       0.00000           0.084238            2.29223
     34       0.00000           0.100619            2.73799
     35       0.00000           0.119972            3.26460
     36       0.00000           0.161385            4.39150
     37       0.00000           0.187409            5.09967
     38       0.00000           0.232882            6.33705
     39       0.00000           0.246078            6.69612
     40       0.00000           0.263717            7.17609
     41       0.00000           0.287150            7.81376
     42       0.00000           0.311344            8.47211
     43       0.00000           0.327451            8.91040
     44       0.00000           0.348936            9.49504
     45       0.00000           0.366486            9.97260
     46       0.00000           0.380283           10.34803
     47       0.00000           0.419335           11.41069
     48       0.00000           0.425096           11.56744
     49       0.00000           0.451647           12.28994
     50       0.00000           0.512636           13.94954
     51       0.00000           0.561709           15.28487
     52       0.00000           0.580884           15.80667
     53       0.00000           0.621573           16.91386

  Highest occupied state (VBM) at     -8.55632544 eV
  | Occupation number:      2.00000000

  Lowest unoccupied state (CBM) at    -3.45512813 eV
  | Occupation number:      0.00000000

  Overall HOMO-LUMO gap:      5.10119731 eV.

  Total energy components:
  | Sum of eigenvalues            :        -185.40322220 Ha       -5045.07836676 eV
  | XC energy correction          :         -42.11665363 Ha       -1146.05245584 eV
  | XC potential correction       :          54.14640509 Ha        1473.39864824 eV
  | Free-atom electrostatic energy:        -146.85972118 Ha       -3996.25634055 eV
  | Hartree energy correction     :          -3.34267666 Ha         -90.95885992 eV
  | vdW energy correction         :           0.00000000 Ha           0.00000000 eV
  | Entropy correction            :           0.00000000 Ha           0.00000000 eV
  | ---------------------------
  | Total energy                  :        -323.57586858 Ha       -8804.94737483 eV
  | Total energy, T -> 0          :        -323.57586858 Ha       -8804.94737483 eV  <-- do not rely on this value for anything but (periodic) metals
  | Electronic free energy        :        -323.57586858 Ha       -8804.94737483 eV

  Derived energy quantities:
  | Kinetic energy                :         322.29421258 Ha        8770.07174058 eV
  | Electrostatic energy          :        -603.75342752 Ha      -16428.96665957 eV
  | Energy correction for multipole
  | error in Hartree potential    :           0.01204834 Ha           0.32785212 eV
  | Sum of eigenvalues per atom                           :        -388.08295129 eV
  | Total energy (T->0) per atom                          :        -677.30364422 eV  <-- do not rely on this value for anything but (periodic) metals
  | Electronic free energy per atom                       :        -677.30364422 eV

  Self-consistency convergence accuracy:
  | Change of charge density      :  0.5884E+00
  | Change of sum of eigenvalues  :  0.9327E+02 eV
  | Change of total energy        :  0.5011E+01 eV

  End self-consistency iteration #     1       :  max(cpu_time)    wall_clock(cpu1)
  | Time for this iteration                    :        1.173 s           1.174 s
  | Charge density update                      :        0.387 s           0.388 s
  | Density mixing                             :        0.005 s           0.005 s
  | Hartree multipole update                   :        0.009 s           0.009 s
  | Hartree multipole summation                :        0.279 s           0.279 s
  | Integration                                :        0.490 s           0.490 s
  | Solution of K.-S. eqns.                    :        0.002 s           0.002 s
  | Total energy evaluation                    :        0.000 s           0.001 s

  Partial memory accounting:
  | Current value for overall tracked memory usage on task 0  :           0.165 MB
  | Peak value for overall tracked memory usage on task 0     :           0.691 MB after allocating gradient_basis_wave
  | Largest tracked array allocation on task 0 so far         :           0.394 MB  when allocating gradient_basis_wave
  Note:  These values currently only include a subset of arrays which are explicitly tracked.
  The "true" memory usage will be greater.
------------------------------------------------------------

------------------------------------------------------------
          Begin self-consistency iteration #    2

  Date     :  20200710, Time     :  152233.628
------------------------------------------------------------
  Evaluating new KS density.
  Integration grid: deviation in total charge (<rho> - N_e) =  -3.552714E-14
  Pulay mixing of updated and previous charge densities.

  Evaluating partitioned Hartree potential by multipole expansion.
  | Analytical far-field extrapolation by fixed multipoles:
  | Hartree multipole sum: apparent total charge =  -0.396157E-03
  Summing up the Hartree potential.
  Time summed over all CPUs for potential: real work        0.278 s, elapsed        0.278 s
  | RMS charge density error from multipole expansion :   0.140001E-01

  Integrating Hamiltonian matrix: batch-based integration.
  Time summed over all CPUs for integration: real work        0.489 s, elapsed        0.489 s

  Updating Kohn-Sham eigenvalues and eigenvectors using ELSI and the ELPA eigensolver.
  Finished Cholesky decomposition
  | Time :     0.000 s
  Finished transformation to standard eigenproblem
  | Time :     0.000 s
  Starting LAPACK eigensolver
  Finished solving standard eigenproblem
  | Time :     0.002 s
  Finished back-transformation of eigenvectors
  | Time :     0.000 s

  Obtaining occupation numbers and chemical potential using ELSI.
  | Chemical potential (Fermi level):    -2.43646896eV
  Highest occupied state (VBM) at     -6.43145153 eV
  | Occupation number:      2.00000000

  Lowest unoccupied state (CBM) at    -2.26990697 eV
  | Occupation number:      0.00000000

  Overall HOMO-LUMO gap:      4.16154456 eV.

  Checking to see if s.c.f. parameters should be adjusted.

  Total energy components:
  | Sum of eigenvalues            :        -181.79953749 Ha       -4947.01711664 eV
  | XC energy correction          :         -42.47831703 Ha       -1155.89381750 eV
  | XC potential correction       :          54.61528508 Ha        1486.15752202 eV
  | Free-atom electrostatic energy:        -146.85972118 Ha       -3996.25634055 eV
  | Hartree energy correction     :          -6.97392632 Ha        -189.77019068 eV
  | vdW energy correction         :           0.00000000 Ha           0.00000000 eV
  | Entropy correction            :          -0.00000000 Ha          -0.00000000 eV
  | ---------------------------
  | Total energy                  :        -323.49621694 Ha       -8802.77994335 eV
  | Total energy, T -> 0          :        -323.49621694 Ha       -8802.77994335 eV  <-- do not rely on this value for anything but (periodic) metals
  | Electronic free energy        :        -323.49621694 Ha       -8802.77994335 eV

  Derived energy quantities:
  | Kinetic energy                :         323.61965414 Ha        8806.13884052 eV
  | Electrostatic energy          :        -604.63755405 Ha      -16453.02496638 eV
  | Energy correction for multipole
  | error in Hartree potential    :           0.02662380 Ha           0.72447043 eV
  | Sum of eigenvalues per atom                           :        -380.53977820 eV
  | Total energy (T->0) per atom                          :        -677.13691872 eV  <-- do not rely on this value for anything but (periodic) metals
  | Electronic free energy per atom                       :        -677.13691872 eV

  Self-consistency convergence accuracy:
  | Change of charge density      :  0.3677E+00
  | Change of sum of eigenvalues  :  0.9806E+02 eV
  | Change of total energy        :  0.2167E+01 eV

  End self-consistency iteration #     2       :  max(cpu_time)    wall_clock(cpu1)
  | Time for this iteration                    :        1.165 s           1.166 s
  | Charge density update                      :        0.380 s           0.380 s
  | Density mixing                             :        0.007 s           0.007 s
  | Hartree multipole update                   :        0.009 s           0.009 s
  | Hartree multipole summation                :        0.279 s           0.278 s
  | Integration                                :        0.489 s           0.489 s
  | Solution of K.-S. eqns.                    :        0.002 s           0.002 s
  | Total energy evaluation                    :        0.000 s           0.000 s

  Partial memory accounting:
  | Current value for overall tracked memory usage on task 0  :           0.166 MB
  | Peak value for overall tracked memory usage on task 0     :           0.691 MB after allocating gradient_basis_wave
  | Largest tracked array allocation on task 0 so far         :           0.394 MB  when allocating gradient_basis_wave
  Note:  These values currently only include a subset of arrays which are explicitly tracked.
  The "true" memory usage will be greater.
------------------------------------------------------------

------------------------------------------------------------
          Begin self-consistency iteration #    3

  Date     :  20200710, Time     :  152234.795
------------------------------------------------------------
  Evaluating new KS density.
  Integration grid: deviation in total charge (<rho> - N_e) =   0.000000E+00
  Pulay mixing of updated and previous charge densities.

  Evaluating partitioned Hartree potential by multipole expansion.
  | Analytical far-field extrapolation by fixed multipoles:
  | Hartree multipole sum: apparent total charge =  -0.492671E-03
  Summing up the Hartree potential.
  Time summed over all CPUs for potential: real work        0.279 s, elapsed        0.279 s
  | RMS charge density error from multipole expansion :   0.220105E-01

  Integrating Hamiltonian matrix: batch-based integration.
  Time summed over all CPUs for integration: real work        0.487 s, elapsed        0.487 s

  Updating Kohn-Sham eigenvalues and eigenvectors using ELSI and the ELPA eigensolver.
  Finished Cholesky decomposition
  | Time :     0.000 s
  Finished transformation to standard eigenproblem
  | Time :     0.000 s
  Starting LAPACK eigensolver
  Finished solving standard eigenproblem
  | Time :     0.002 s
  Finished back-transformation of eigenvectors
  | Time :     0.000 s

  Obtaining occupation numbers and chemical potential using ELSI.
  | Chemical potential (Fermi level):    -1.80027502eV
  Highest occupied state (VBM) at     -5.73333342 eV
  | Occupation number:      2.00000000

  Lowest unoccupied state (CBM) at    -1.62109636 eV
  | Occupation number:      0.00000000

  Overall HOMO-LUMO gap:      4.11223706 eV.

  Total energy components:
  | Sum of eigenvalues            :        -180.51817233 Ha       -4912.14939641 eV
  | XC energy correction          :         -42.62741423 Ha       -1159.95095878 eV
  | XC potential correction       :          54.80541213 Ha        1491.33114220 eV
  | Free-atom electrostatic energy:        -146.85972118 Ha       -3996.25634055 eV
  | Hartree energy correction     :          -8.28351508 Ha        -225.40591378 eV
  | vdW energy correction         :           0.00000000 Ha           0.00000000 eV
  | Entropy correction            :          -0.00000000 Ha          -0.00000000 eV
  | ---------------------------
  | Total energy                  :        -323.48341068 Ha       -8802.43146733 eV
  | Total energy, T -> 0          :        -323.48341068 Ha       -8802.43146733 eV  <-- do not rely on this value for anything but (periodic) metals
  | Electronic free energy        :        -323.48341068 Ha       -8802.43146733 eV

  Derived energy quantities:
  | Kinetic energy                :         323.19089376 Ha        8794.47167705 eV
  | Electrostatic energy          :        -604.04689021 Ha      -16436.95218560 eV
  | Energy correction for multipole
  | error in Hartree potential    :           0.03770530 Ha           1.02601344 eV
  | Sum of eigenvalues per atom                           :        -377.85764588 eV
  | Total energy (T->0) per atom                          :        -677.11011287 eV  <-- do not rely on this value for anything but (periodic) metals
  | Electronic free energy per atom                       :        -677.11011287 eV

  Self-consistency convergence accuracy:
  | Change of charge density      :  0.2053E+00
  | Change of sum of eigenvalues  :  0.3487E+02 eV
  | Change of total energy        :  0.3485E+00 eV

  End self-consistency iteration #     3       :  max(cpu_time)    wall_clock(cpu1)
  | Time for this iteration                    :        1.166 s           1.166 s
  | Charge density update                      :        0.381 s           0.380 s
  | Density mixing                             :        0.008 s           0.009 s
  | Hartree multipole update                   :        0.009 s           0.008 s
  | Hartree multipole summation                :        0.279 s           0.280 s
  | Integration                                :        0.487 s           0.487 s
  | Solution of K.-S. eqns.                    :        0.002 s           0.002 s
  | Total energy evaluation                    :        0.000 s           0.000 s

  Partial memory accounting:
  | Current value for overall tracked memory usage on task 0  :           0.166 MB
  | Peak value for overall tracked memory usage on task 0     :           0.692 MB after allocating gradient_basis_wave
  | Largest tracked array allocation on task 0 so far         :           0.394 MB  when allocating gradient_basis_wave
  Note:  These values currently only include a subset of arrays which are explicitly tracked.
  The "true" memory usage will be greater.
------------------------------------------------------------

------------------------------------------------------------
          Begin self-consistency iteration #    4

  Date     :  20200710, Time     :  152235.962
------------------------------------------------------------
  Evaluating new KS density.
  Integration grid: deviation in total charge (<rho> - N_e) =  -7.105427E-15
  Pulay mixing of updated and previous charge densities.

  Evaluating partitioned Hartree potential by multipole expansion.
  | Analytical far-field extrapolation by fixed multipoles:
  | Hartree multipole sum: apparent total charge =  -0.524688E-03
  Summing up the Hartree potential.
  Time summed over all CPUs for potential: real work        0.279 s, elapsed        0.279 s
  | RMS charge density error from multipole expansion :   0.254139E-01

  Integrating Hamiltonian matrix: batch-based integration.
  Time summed over all CPUs for integration: real work        0.485 s, elapsed        0.485 s

  Updating Kohn-Sham eigenvalues and eigenvectors using ELSI and the ELPA eigensolver.
  Finished Cholesky decomposition
  | Time :     0.000 s
  Finished transformation to standard eigenproblem
  | Time :     0.000 s
  Starting LAPACK eigensolver
  Finished solving standard eigenproblem
  | Time :     0.002 s
  Finished back-transformation of eigenvectors
  | Time :     0.000 s

  Obtaining occupation numbers and chemical potential using ELSI.
  | Chemical potential (Fermi level):    -1.70517100eV
  Highest occupied state (VBM) at     -5.58321331 eV
  | Occupation number:      2.00000000

  Lowest unoccupied state (CBM) at    -1.52885989 eV
  | Occupation number:      0.00000000

  Overall HOMO-LUMO gap:      4.05435342 eV.

  Total energy components:
  | Sum of eigenvalues            :        -180.36689802 Ha       -4908.03301300 eV
  | XC energy correction          :         -42.66536220 Ha       -1160.98357570 eV
  | XC potential correction       :          54.85320529 Ha        1492.63166029 eV
  | Free-atom electrostatic energy:        -146.85972118 Ha       -3996.25634055 eV
  | Hartree energy correction     :          -8.44370875 Ha        -229.76500530 eV
  | vdW energy correction         :           0.00000000 Ha           0.00000000 eV
  | Entropy correction            :          -0.00000000 Ha          -0.00000000 eV
  | ---------------------------
  | Total energy                  :        -323.48248485 Ha       -8802.40627426 eV
  | Total energy, T -> 0          :        -323.48248485 Ha       -8802.40627426 eV  <-- do not rely on this value for anything but (periodic) metals
  | Electronic free energy        :        -323.48248485 Ha       -8802.40627426 eV

  Derived energy quantities:
  | Kinetic energy                :         322.80844648 Ha        8784.06475696 eV
  | Electrostatic energy          :        -603.62556913 Ha      -16425.48745552 eV
  | Energy correction for multipole
  | error in Hartree potential    :           0.04195978 Ha           1.14178383 eV
  | Sum of eigenvalues per atom                           :        -377.54100100 eV
  | Total energy (T->0) per atom                          :        -677.10817494 eV  <-- do not rely on this value for anything but (periodic) metals
  | Electronic free energy per atom                       :        -677.10817494 eV

  Self-consistency convergence accuracy:
  | Change of charge density      :  0.6538E-01
  | Change of sum of eigenvalues  :  0.4116E+01 eV
  | Change of total energy        :  0.2519E-01 eV

  End self-consistency iteration #     4       :  max(cpu_time)    wall_clock(cpu1)
  | Time for this iteration                    :        1.166 s           1.166 s
  | Charge density update                      :        0.380 s           0.381 s
  | Density mixing                             :        0.009 s           0.009 s
  | Hartree multipole update                   :        0.009 s           0.009 s
  | Hartree multipole summation                :        0.279 s           0.279 s
  | Integration                                :        0.485 s           0.486 s
  | Solution of K.-S. eqns.                    :        0.002 s           0.002 s
  | Total energy evaluation                    :        0.000 s           0.000 s

  Partial memory accounting:
  | Current value for overall tracked memory usage on task 0  :           0.166 MB
  | Peak value for overall tracked memory usage on task 0     :           0.692 MB after allocating gradient_basis_wave
  | Largest tracked array allocation on task 0 so far         :           0.394 MB  when allocating gradient_basis_wave
  Note:  These values currently only include a subset of arrays which are explicitly tracked.
  The "true" memory usage will be greater.
------------------------------------------------------------

------------------------------------------------------------
          Begin self-consistency iteration #    5

  Date     :  20200710, Time     :  152237.129
------------------------------------------------------------
  Evaluating new KS density.
  Integration grid: deviation in total charge (<rho> - N_e) =   2.842171E-14
  Pulay mixing of updated and previous charge densities.

  Evaluating partitioned Hartree potential by multipole expansion.
  | Analytical far-field extrapolation by fixed multipoles:
  | Hartree multipole sum: apparent total charge =  -0.518185E-03
  Summing up the Hartree potential.
  Time summed over all CPUs for potential: real work        0.279 s, elapsed        0.279 s
  | RMS charge density error from multipole expansion :   0.251801E-01

  Integrating Hamiltonian matrix: batch-based integration.
  Time summed over all CPUs for integration: real work        0.486 s, elapsed        0.486 s

  Updating Kohn-Sham eigenvalues and eigenvectors using ELSI and the ELPA eigensolver.
  Finished Cholesky decomposition
  | Time :     0.000 s
  Finished transformation to standard eigenproblem
  | Time :     0.000 s
  Starting LAPACK eigensolver
  Finished solving standard eigenproblem
  | Time :     0.001 s
  Finished back-transformation of eigenvectors
  | Time :     0.000 s

  Obtaining occupation numbers and chemical potential using ELSI.
  | Chemical potential (Fermi level):    -1.75903130eV
  Highest occupied state (VBM) at     -5.66202691 eV
  | Occupation number:      2.00000000

  Lowest unoccupied state (CBM) at    -1.62025015 eV
  | Occupation number:      0.00000000

  Overall HOMO-LUMO gap:      4.04177676 eV.

  Total energy components:
  | Sum of eigenvalues            :        -180.57678856 Ha       -4913.74442531 eV
  | XC energy correction          :         -42.63987253 Ha       -1160.28996646 eV
  | XC potential correction       :          54.82013410 Ha        1491.73174722 eV
  | Free-atom electrostatic energy:        -146.85972118 Ha       -3996.25634055 eV
  | Hartree energy correction     :          -8.22594969 Ha        -223.83947992 eV
  | vdW energy correction         :           0.00000000 Ha           0.00000000 eV
  | Entropy correction            :          -0.00000000 Ha          -0.00000000 eV
  | ---------------------------
  | Total energy                  :        -323.48219787 Ha       -8802.39846502 eV
  | Total energy, T -> 0          :        -323.48219787 Ha       -8802.39846502 eV  <-- do not rely on this value for anything but (periodic) metals
  | Electronic free energy        :        -323.48219787 Ha       -8802.39846502 eV

  Derived energy quantities:
  | Kinetic energy                :         322.68540539 Ha        8780.71663855 eV
  | Electrostatic energy          :        -603.52773072 Ha      -16422.82513711 eV
  | Energy correction for multipole
  | error in Hartree potential    :           0.04133022 Ha           1.12465252 eV
  | Sum of eigenvalues per atom                           :        -377.98034041 eV
  | Total energy (T->0) per atom                          :        -677.10757423 eV  <-- do not rely on this value for anything but (periodic) metals
  | Electronic free energy per atom                       :        -677.10757423 eV

  Self-consistency convergence accuracy:
  | Change of charge density      :  0.2009E-01
  | Change of sum of eigenvalues  : -0.5711E+01 eV
  | Change of total energy        :  0.7809E-02 eV

  End self-consistency iteration #     5       :  max(cpu_time)    wall_clock(cpu1)
  | Time for this iteration                    :        1.166 s           1.167 s
  | Charge density update                      :        0.380 s           0.380 s
  | Density mixing                             :        0.011 s           0.011 s
  | Hartree multipole update                   :        0.009 s           0.009 s
  | Hartree multipole summation                :        0.279 s           0.279 s
  | Integration                                :        0.486 s           0.485 s
  | Solution of K.-S. eqns.                    :        0.002 s           0.002 s
  | Total energy evaluation                    :        0.000 s           0.001 s

  Partial memory accounting:
  | Current value for overall tracked memory usage on task 0  :           0.166 MB
  | Peak value for overall tracked memory usage on task 0     :           0.692 MB after allocating gradient_basis_wave
  | Largest tracked array allocation on task 0 so far         :           0.394 MB  when allocating gradient_basis_wave
  Note:  These values currently only include a subset of arrays which are explicitly tracked.
  The "true" memory usage will be greater.
------------------------------------------------------------

------------------------------------------------------------
          Begin self-consistency iteration #    6

  Date     :  20200710, Time     :  152238.296
------------------------------------------------------------
  Evaluating new KS density.
  Integration grid: deviation in total charge (<rho> - N_e) =   2.131628E-14
  Pulay mixing of updated and previous charge densities.

  Evaluating partitioned Hartree potential by multipole expansion.
  | Analytical far-field extrapolation by fixed multipoles:
  | Hartree multipole sum: apparent total charge =  -0.522359E-03
  Summing up the Hartree potential.
  Time summed over all CPUs for potential: real work        0.279 s, elapsed        0.279 s
  | RMS charge density error from multipole expansion :   0.256438E-01

  Integrating Hamiltonian matrix: batch-based integration.
  Time summed over all CPUs for integration: real work        0.487 s, elapsed        0.487 s

  Updating Kohn-Sham eigenvalues and eigenvectors using ELSI and the ELPA eigensolver.
  Finished Cholesky decomposition
  | Time :     0.000 s
  Finished transformation to standard eigenproblem
  | Time :     0.000 s
  Starting LAPACK eigensolver
  Finished solving standard eigenproblem
  | Time :     0.001 s
  Finished back-transformation of eigenvectors
  | Time :     0.000 s

  Obtaining occupation numbers and chemical potential using ELSI.
  | Chemical potential (Fermi level):    -1.74072984eV
  Highest occupied state (VBM) at     -5.61724535 eV
  | Occupation number:      2.00000000

  Lowest unoccupied state (CBM) at    -1.62303435 eV
  | Occupation number:      0.00000000

  Overall HOMO-LUMO gap:      3.99421100 eV.

  Total energy components:
  | Sum of eigenvalues            :        -180.55458977 Ha       -4913.14036541 eV
  | XC energy correction          :         -42.64173001 Ha       -1160.34051103 eV
  | XC potential correction       :          54.82251908 Ha        1491.79664600 eV
  | Free-atom electrostatic energy:        -146.85972118 Ha       -3996.25634055 eV
  | Hartree energy correction     :          -8.24863889 Ha        -224.45688456 eV
  | vdW energy correction         :           0.00000000 Ha           0.00000000 eV
  | Entropy correction            :          -0.00000000 Ha          -0.00000000 eV
  | ---------------------------
  | Total energy                  :        -323.48216077 Ha       -8802.39745555 eV
  | Total energy, T -> 0          :        -323.48216077 Ha       -8802.39745555 eV  <-- do not rely on this value for anything but (periodic) metals
  | Electronic free energy        :        -323.48216077 Ha       -8802.39745555 eV

  Derived energy quantities:
  | Kinetic energy                :         322.61722458 Ha        8778.86134442 eV
  | Electrostatic energy          :        -603.45765534 Ha      -16420.91828895 eV
  | Energy correction for multipole
  | error in Hartree potential    :           0.04180389 Ha           1.13754163 eV
  | Sum of eigenvalues per atom                           :        -377.93387426 eV
  | Total energy (T->0) per atom                          :        -677.10749658 eV  <-- do not rely on this value for anything but (periodic) metals
  | Electronic free energy per atom                       :        -677.10749658 eV

  Self-consistency convergence accuracy:
  | Change of charge density      :  0.1044E-01
  | Change of sum of eigenvalues  :  0.6041E+00 eV
  | Change of total energy        :  0.1009E-02 eV

  End self-consistency iteration #     6       :  max(cpu_time)    wall_clock(cpu1)
  | Time for this iteration                    :        1.169 s           1.170 s
  | Charge density update                      :        0.380 s           0.381 s
  | Density mixing                             :        0.012 s           0.012 s
  | Hartree multipole update                   :        0.009 s           0.009 s
  | Hartree multipole summation                :        0.279 s           0.279 s
  | Integration                                :        0.487 s           0.486 s
  | Solution of K.-S. eqns.                    :        0.002 s           0.002 s
  | Total energy evaluation                    :        0.000 s           0.000 s

  Partial memory accounting:
  | Current value for overall tracked memory usage on task 0  :           0.166 MB
  | Peak value for overall tracked memory usage on task 0     :           0.692 MB after allocating gradient_basis_wave
  | Largest tracked array allocation on task 0 so far         :           0.394 MB  when allocating gradient_basis_wave
  Note:  These values currently only include a subset of arrays which are explicitly tracked.
  The "true" memory usage will be greater.
------------------------------------------------------------

------------------------------------------------------------
          Begin self-consistency iteration #    7

  Date     :  20200710, Time     :  152239.467
------------------------------------------------------------
  Evaluating new KS density.
  Integration grid: deviation in total charge (<rho> - N_e) =   7.105427E-15
  Pulay mixing of updated and previous charge densities.

  Evaluating partitioned Hartree potential by multipole expansion.
  | Analytical far-field extrapolation by fixed multipoles:
  | Hartree multipole sum: apparent total charge =  -0.522891E-03
  Summing up the Hartree potential.
  Time summed over all CPUs for potential: real work        0.279 s, elapsed        0.279 s
  | RMS charge density error from multipole expansion :   0.257436E-01

  Integrating Hamiltonian matrix: batch-based integration.
  Time summed over all CPUs for integration: real work        0.486 s, elapsed        0.486 s

  Updating Kohn-Sham eigenvalues and eigenvectors using ELSI and the ELPA eigensolver.
  Finished Cholesky decomposition
  | Time :     0.000 s
  Finished transformation to standard eigenproblem
  | Time :     0.000 s
  Starting LAPACK eigensolver
  Finished solving standard eigenproblem
  | Time :     0.002 s
  Finished back-transformation of eigenvectors
  | Time :     0.000 s

[...]
  |   Hirshfeld dipole moment :      0.05927330
  |   Hirshfeld second moments:      0.00805285      -0.02993879      -0.02056281
  |                                 -0.02993879      -0.01326336       0.01189910
  |                                 -0.02056281       0.01189910      -0.01420839
  ----------------------------------------------------------------------
  | Atom    12: O
  |   Hirshfeld charge        :     -0.15637350
  |   Free atom volume        :     23.61338643
  |   Hirshfeld volume        :     20.73470381
  |   Hirshfeld dipole vector :      0.03247555       0.01217980       0.01362930
  |   Hirshfeld dipole moment :      0.03726616
  |   Hirshfeld second moments:      0.05472748      -0.02700233      -0.00566789
  |                                 -0.02700233       0.09952981       0.01910059
  |                                 -0.00566789       0.01910059       0.03123025
  ----------------------------------------------------------------------
  | Atom    13: H
  |   Hirshfeld charge        :      0.18935435
  |   Free atom volume        :      9.95071624
  |   Hirshfeld volume        :      6.09852413
  |   Hirshfeld dipole vector :      0.07990661      -0.10013418      -0.02131001
  |   Hirshfeld dipole moment :      0.12986931
  |   Hirshfeld second moments:      0.12068957       0.00041306      -0.00333877
  |                                  0.00041306       0.12775684       0.00517824
  |                                 -0.00333877       0.00517824       0.10298795
  ----------------------------------------------------------------------


  Total energy components:
  | Sum of eigenvalues            :        -180.55699298 Ha       -4913.20576008 eV
  | XC energy correction          :         -42.63810831 Ha       -1160.24195953 eV
  | XC potential correction       :          54.81791533 Ha        1491.67137141 eV
  | Free-atom electrostatic energy:        -146.85972118 Ha       -3996.25634055 eV
  | Hartree energy correction     :          -8.24522878 Ha        -224.36409069 eV
  | vdW energy correction         :          -0.00323193 Ha          -0.08794535 eV
  | Entropy correction            :          -0.00000000 Ha          -0.00000000 eV
  | ---------------------------
  | Total energy                  :        -323.48536785 Ha       -8802.48472479 eV
  | Total energy, T -> 0          :        -323.48536785 Ha       -8802.48472479 eV  <-- do not rely on this value for anything but (periodic) metals
  | Electronic free energy        :        -323.48536785 Ha       -8802.48472479 eV

  Derived energy quantities:
  | Kinetic energy                :         322.57772991 Ha        8777.78663984 eV
  | Electrostatic energy          :        -603.42175753 Ha      -16419.94145974 eV
  | Energy correction for multipole
  | error in Hartree potential    :           0.04184999 Ha           1.13879629 eV
  | Sum of eigenvalues per atom                           :        -377.93890462 eV
  | Total energy (T->0) per atom                          :        -677.11420960 eV  <-- do not rely on this value for anything but (periodic) metals
  | Electronic free energy per atom                       :        -677.11420960 eV

  atomic forces [eV/Ang]:
  -----------------------
  atom #    1
   Hellmann-Feynman              : -0.254898E+00  0.815688E+00  0.112681E+01
   Ionic forces                  :  0.000000E+00  0.000000E+00  0.000000E+00
   Multipole                     :  0.506984E-02  0.342580E+00 -0.282245E+00
   Pulay + GGA                   : -0.744819E+00 -0.541856E+00 -0.132737E+01
   Van der Waals                 :  0.301555E-02  0.745162E-02 -0.156739E-02
   ----------------------------------------------------------------
   Total forces(   1)            : -0.991632E+00  0.623863E+00 -0.484371E+00
  atom #    2
   Hellmann-Feynman              :  0.325130E+00 -0.308570E-01  0.281542E-01
   Ionic forces                  :  0.000000E+00  0.000000E+00  0.000000E+00
   Multipole                     :  0.172683E+00  0.113336E-01 -0.350232E-01
   Pulay + GGA                   : -0.148420E+00  0.597909E-02  0.169336E-02
   Van der Waals                 :  0.523714E-02 -0.787399E-02 -0.500755E-02
   ----------------------------------------------------------------
   Total forces(   2)            :  0.354630E+00 -0.214183E-01 -0.101832E-01
  atom #    3
   Hellmann-Feynman              :  0.671769E+01 -0.822578E+01 -0.540826E+01
   Ionic forces                  :  0.000000E+00  0.000000E+00  0.000000E+00
   Multipole                     : -0.196592E+00  0.116208E+00 -0.958415E+00
   Pulay + GGA                   : -0.592081E+01  0.738730E+01  0.686497E+01
   Van der Waals                 :  0.351822E-02 -0.870129E-02 -0.639435E-02
   ----------------------------------------------------------------
   Total forces(   3)            :  0.603801E+00 -0.730979E+00  0.491909E+00
  atom #    4
   Hellmann-Feynman              : -0.202210E+00  0.216097E+00 -0.505214E-01
   Ionic forces                  :  0.000000E+00  0.000000E+00  0.000000E+00
   Multipole                     : -0.956051E-01 -0.965324E-02 -0.564343E-01
   Pulay + GGA                   :  0.242652E+00 -0.378792E-01 -0.467160E-01
   Van der Waals                 :  0.224586E-04 -0.322968E-02 -0.702689E-02
   ----------------------------------------------------------------
   Total forces(   4)            : -0.551403E-01  0.165335E+00 -0.160699E+00
  atom #    5
   Hellmann-Feynman              : -0.156571E+00  0.257957E+00 -0.133882E-02
   Ionic forces                  :  0.000000E+00  0.000000E+00  0.000000E+00
   Multipole                     : -0.443267E-01  0.575775E-01 -0.700908E-01
   Pulay + GGA                   :  0.315083E-01 -0.235041E+00  0.253501E-01
   Van der Waals                 : -0.406610E-02 -0.537969E-02 -0.427064E-02
   ----------------------------------------------------------------
   Total forces(   5)            : -0.173455E+00  0.751136E-01 -0.503501E-01
  atom #    6
   Hellmann-Feynman              :  0.247476E+00 -0.924213E+00  0.709885E+00
   Ionic forces                  :  0.000000E+00  0.000000E+00  0.000000E+00
   Multipole                     : -0.108133E+00  0.615555E+00  0.200310E+00
   Pulay + GGA                   :  0.119130E+00 -0.798044E-01 -0.485543E+00
   Van der Waals                 : -0.476271E-03  0.109766E-01  0.660033E-02
   ----------------------------------------------------------------
   Total forces(   6)            :  0.257997E+00 -0.377486E+00  0.431252E+00
  atom #    7
   Hellmann-Feynman              : -0.217554E+00 -0.536790E-01 -0.448272E-01
   Ionic forces                  :  0.000000E+00  0.000000E+00  0.000000E+00
   Multipole                     : -0.119526E+00  0.487998E-01  0.308197E-01
   Pulay + GGA                   :  0.112886E+00  0.623623E-02  0.563435E-02
   Van der Waals                 : -0.219267E-02  0.480592E-02  0.682910E-02
   ----------------------------------------------------------------
   Total forces(   7)            : -0.226387E+00  0.616295E-02 -0.154403E-02
  atom #    8
   Hellmann-Feynman              :  0.747437E-01  0.665477E-01  0.242648E+00
   Ionic forces                  :  0.000000E+00  0.000000E+00  0.000000E+00
   Multipole                     :  0.152093E-01  0.613059E-01  0.123468E+00
   Pulay + GGA                   : -0.457718E-01 -0.392018E-01 -0.102394E+00
   Van der Waals                 : -0.286251E-02  0.114437E-01  0.558084E-03
   ----------------------------------------------------------------
   Total forces(   8)            :  0.413187E-01  0.100096E+00  0.264280E+00
  atom #    9
   Hellmann-Feynman              :  0.116533E+00  0.571909E-01 -0.188394E+00
   Ionic forces                  :  0.000000E+00  0.000000E+00  0.000000E+00
   Multipole                     :  0.208131E-01  0.131670E+00 -0.676529E-02
   Pulay + GGA                   : -0.390761E-01 -0.689050E-01  0.796663E-01
   Van der Waals                 : -0.238061E-02  0.552780E-02  0.766685E-02
   ----------------------------------------------------------------
   Total forces(   9)            :  0.958898E-01  0.125483E+00 -0.107826E+00
  atom #   10
   Hellmann-Feynman              :  0.310199E+01  0.545929E+01  0.144814E+01
   Ionic forces                  :  0.000000E+00  0.000000E+00  0.000000E+00
   Multipole                     : -0.451907E-01 -0.112149E+00  0.354081E+00
   Pulay + GGA                   : -0.199210E+01 -0.266780E+01 -0.147088E+00
   Van der Waals                 :  0.419316E-02 -0.111003E-01 -0.978911E-03
   ----------------------------------------------------------------
   Total forces(  10)            :  0.106889E+01  0.266823E+01  0.165415E+01
  atom #   11
   Hellmann-Feynman              :  0.402167E+01 -0.211690E+01  0.138330E+02
   Ionic forces                  :  0.000000E+00  0.000000E+00  0.000000E+00
   Multipole                     :  0.730538E-01 -0.718226E+00  0.805898E+00
   Pulay + GGA                   : -0.301441E+01  0.348097E+01 -0.135540E+02
   Van der Waals                 : -0.373116E-02 -0.110816E-01  0.272670E-02
   ----------------------------------------------------------------
   Total forces(  11)            :  0.107658E+01  0.634763E+00  0.108769E+01
  atom #   12
   Hellmann-Feynman              : -0.135833E+02  0.479726E+00 -0.900342E+01
   Ionic forces                  :  0.000000E+00  0.000000E+00  0.000000E+00
   Multipole                     : -0.104154E+01 -0.109333E+01 -0.399078E+00
   Pulay + GGA                   :  0.132694E+02 -0.155697E+01  0.642683E+01
   Van der Waals                 :  0.103271E-02  0.532495E-02  0.499631E-02
   ----------------------------------------------------------------
   Total forces(  12)            : -0.135436E+01 -0.216525E+01 -0.297068E+01
  atom #   13
   Hellmann-Feynman              : -0.459329E+00 -0.134933E+01 -0.124965E+00
   Ionic forces                  :  0.000000E+00  0.000000E+00  0.000000E+00
   Multipole                     :  0.484994E-01 -0.507955E-01 -0.337005E-01
   Pulay + GGA                   : -0.285443E+00  0.291235E+00  0.159808E-01
   Van der Waals                 : -0.130992E-02  0.183595E-02 -0.413164E-02
   ----------------------------------------------------------------
   Total forces(  13)            : -0.697583E+00 -0.110705E+01 -0.146817E+00

  Timings for VdW correction (Tkatchenko-Scheffler 2009 or later):
  | CPU time:        0.088 s, Wall clock time:        0.089 s.
  Removing unitary transformations (pure translations, rotations) from forces on atoms.
  Atomic forces before filtering:
  | Net force on center of mass :   0.552927E-03 -0.313252E-02 -0.318830E-02 eV/A
  | Net torque on center of mass:  -0.451503E-02  0.210209E-02  0.143633E-02 eV
  Atomic forces after filtering:
  | Net force on center of mass :   0.892031E-16  0.178406E-15 -0.312211E-15 eV/A
  | Net torque on center of mass:   0.413037E-15 -0.685936E-16  0.755268E-15 eV

  Energy and forces in a compact form:
  | Total energy uncorrected      :         -0.880248472478614E+04 eV
  | Total energy corrected        :         -0.880248472478614E+04 eV  <-- do not rely on this value for anything but (periodic) metals
  | Electronic free energy        :         -0.880248472478614E+04 eV
  Total atomic forces (unitary forces cleaned) [eV/Ang]:
  |   1         -0.991659510954134E+00          0.624100680779633E+00         -0.484074468336499E+00
  |   2          0.354602699536077E+00         -0.212203760829721E-01         -0.978220926289336E-02
  |   3          0.603908116391516E+00         -0.730578682988069E+00          0.492159559613602E+00
  |   4         -0.550428795202733E-01          0.165771525616133E+00         -0.160572835353278E+00
  |   5         -0.173278533101174E+00          0.755489149236824E-01         -0.499955636502802E-01
  |   6          0.257945207431174E+00         -0.377305087517716E+00          0.431630421897694E+00
  |   7         -0.226438587860214E+00          0.638162100165813E-02         -0.126671992005982E-02
  |   8          0.411692183454016E-01          0.100157260640419E+00          0.264694347036936E+00
  |   9          0.959191658922696E-01          0.125702739617212E+00         -0.107320496206435E+00
  |  10          0.106874916650849E+01          0.266840744477279E+01          0.165427652844090E+01
  |  11          0.107631812058290E+01          0.634811342770131E+00          0.108781694512232E+01
  |  12         -0.135447462801483E+01         -0.216497551641781E+01         -0.297070754016455E+01
  |  13         -0.697717555237203E+00         -0.110680186711509E+01         -0.146857969217462E+00

  ------------------------------------ 
  Start decomposition of the XC Energy 
  ------------------------------------ 
  X and C from original XC functional choice 
  Hartree-Fock Energy :          0.000000000 Ha              0.000000000 eV
  X Energy            :        -41.037820061 Ha          -1116.695900720 eV
  C Energy            :         -1.600288247 Ha            -43.546058809 eV
  Total XC Energy     :        -42.638108308 Ha          -1160.241959529 eV
  ------------------------------------ 
  LDA X and C from self-consistent density 
  X Energy LDA        :        -37.256234411 Ha          -1013.793719592 eV
  C Energy LDA        :         -3.138522025 Ha            -85.403529598 eV
  ------------------------------------ 
  End decomposition of the XC Energy 
  ------------------------------------ 

------------------------------------------------------------

------------------------------------------------------------------------------
  Final output of selected total energy values:

  The following output summarizes some interesting total energy values
  at the end of a run (AFTER all relaxation, molecular dynamics, etc.).

  | Total energy of the DFT / Hartree-Fock s.c.f. calculation      :          -8802.484724786 eV
  | Final zero-broadening corrected energy (caution - metals only) :          -8802.484724786 eV
  | For reference only, the value of 1 Hartree used in FHI-aims is :             27.211384500 eV

  Before relying on these values, please be sure to understand exactly which
  total energy value is referred to by a given number. Different objects may
  all carry the same name 'total energy'. Definitions:

  Total energy of the DFT / Hartree-Fock s.c.f. calculation:
  | Note that this energy does not include ANY quantities calculated after the
  | s.c.f. cycle, in particular not ANY RPA, MP2, etc. many-body perturbation terms.

  Final zero-broadening corrected energy:
  | For metallic systems only, a broadening of the occupation numbers at the Fermi
  | level can be extrapolated back to zero broadening by an electron-gas inspired
  | formula. For all systems that are not real metals, this value can be
  | meaningless and should be avoided.

------------------------------------------------------------------------------
  Methods described in the following list of references were used in this FHI-aims run.
  If you publish the results, please make sure to cite these reference if they apply.
  FHI-aims is an academic code, and for our developers (often, Ph.D. students
  and postdocs), scientific credit in the community is essential.
  Thank you for helping us!

  For any use of FHI-aims, please cite:

    Volker Blum, Ralf Gehrke, Felix Hanke, Paula Havu, Ville Havu,
    Xinguo Ren, Karsten Reuter, and Matthias Scheffler
    'Ab initio molecular simulations with numeric atom-centered orbitals'
    Computer Physics Communications 180, 2175-2196 (2009)
    http://dx.doi.org/10.1016/j.cpc.2009.06.022


  The scalable eigensolver library ELPA was used in your run.
  ELPA is essential especially for large systems on hundreds or thousands of CPUs.
  For ELPA, please cite:

    Andreas Marek, Volker Blum, Rainer Johanni, Ville Havu, Bruno Lang,
    Thomas Auckenthaler, Alexander Heinecke, Hans-Joachim Bungartz, and Hermann Lederer,
    'The ELPA Library - Scalable Parallel Eigenvalue Solutions
    for Electronic Structure Theory and Computational Science'
    The Journal of Physics: Condensed Matter 26, 213201 (2014).
    http://dx.doi.org/10.1088/0953-8984/26/21/213201


  The ELSI infrastructure was used in your run to solve the Kohn-Sham electronic structure.
  Please check out http://elsi-interchange.org to learn more.
  If scalability is important for your project, please acknowledge ELSI by citing:

    V. W-z. Yu, F. Corsetti, A. Garcia, W. P. Huhn, M. Jacquelin, W. Jia,
    B. Lange, L. Lin, J. Lu, W. Mi, A. Seifitokaldani, A. Vazquez-Mayagoitia,
    C. Yang, H. Yang, and V. Blum
    'ELSI: A unified software interface for Kohn-Sham electronic structure solvers'
    Computer Physics Communications 222, 267-285 (2018).
    http://dx.doi.org/10.1016/j.cpc.2017.09.007


  For the real-space grid partitioning and parallelization used in this calculation, please cite:

    Ville Havu, Volker Blum, Paula Havu, and Matthias Scheffler,
    'Efficient O(N) integration for all-electron electronic structure calculation'
    'using numerically tabulated basis functions'
    Journal of Computational Physics 228, 8367-8379 (2009).
    http://dx.doi.org/10.1016/j.jcp.2009.08.008

  Of course, there are many other important community references, e.g., those cited in the
  above references. Our list is limited to references that describe implementations in the
  FHI-aims code. The reason is purely practical (length of this list) - please credit others as well.

------------------------------------------------------------
          Leaving FHI-aims.
          Date     :  20200710, Time     :  152253.557

          Computational steps:
          | Number of self-consistency cycles          :           16
          | Number of SCF (re)initializations          :            1

          Detailed time accounting                     :  max(cpu_time)    wall_clock(cpu1)
          | Total time                                 :       22.362 s          22.408 s
          | Preparation time                           :        0.145 s           0.146 s
          | Boundary condition initalization           :        0.000 s           0.000 s
          | Grid partitioning                          :        0.109 s           0.110 s
          | Preloading free-atom quantities on grid    :        0.002 s           0.002 s
          | Free-atom superposition energy             :        0.084 s           0.085 s
          | Total time for integrations                :        8.480 s           8.487 s
          | Total time for solution of K.-S. equations :        0.037 s           0.039 s
          | Total time for density & force components  :        7.017 s           7.028 s
          | Total time for mixing                      :        0.211 s           0.214 s
          | Total time for Hartree multipole update    :        0.140 s           0.142 s
          | Total time for Hartree multipole sum       :        5.742 s           5.744 s
          | Total time for total energy evaluation     :        0.003 s           0.007 s
          | Total time for vdW correction              :        0.088 s           0.089 s

          Partial memory accounting:
          | Residual value for overall tracked memory usage across tasks :           0.000 MB (should be 0.000 MB)
          | Peak values for overall tracked memory usage (after allocating hessian_basis_wave):
          |   Minimum:        1.612 MB (on task 1)
          |   Maximum:        1.612 MB (on task 1)
          |   Average:        1.612 MB
          | Largest tracked array allocation (hessian_basis_wave):
          |   Minimum:        0.788 MB (on task 1)
          |   Maximum:        0.788 MB (on task 1)
          |   Average:        0.788 MB
          Note:  These values currently only include a subset of arrays which are explicitly tracked.
          The "true" memory usage will be greater.

          Have a nice day.
------------------------------------------------------------
