  MPI-parallelism will be employed.
------------------------------------------------------------
          Invoking FHI-aims ...
          Version 171221_1
          Compiled on 2019/09/09 at 14:39:39 on host puhti-login2.bullx.

          When using FHI-aims, please cite the following reference:

          Volker Blum, Ralf Gehrke, Felix Hanke, Paula Havu,
          Ville Havu, Xinguo Ren, Karsten Reuter, and Matthias Scheffler,
          'Ab Initio Molecular Simulations with Numeric Atom-Centered Orbitals',
          Computer Physics Communications 180, 2175-2196 (2009)

          For any questions about FHI-aims, please visit the aimsclub website
          with its forums and wiki. Contributions to both the forums and the
          wiki are warmly encouraged - they are for you, and everyone is welcome there.

------------------------------------------------------------



  Date     :  20200710, Time     :  144125.022
  Time zero on CPU 1             :   0.116550000000000E-01  s.
  Internal wall clock time zero  :           363624085.022  s.

  FHI-aims created a unique identifier for this run for later identification
  aims_uuid : 4B68F323-08E5-47A8-A1AB-F9453A8FBD17

  Using        1 parallel tasks.
  Task        0 on host r18c46.bullx reporting.

  Performing system and environment tests:
  | Environment variable OMP_NUM_THREADS correctly set to 1.
  | Stacksize not measured: no C compiler
  | Checking for scalapack...
  | Testing pdtran()...
  | All pdtran() tests passed.

  Obtaining array dimensions for all initial allocations:
  
  -----------------------------------------------------------------------
  Parsing control.in (first pass over file, find array dimensions only).
  The contents of control.in will be repeated verbatim below
  unless switched off by setting 'verbatim_writeout .false.' .
  in the first line of control.in .
  -----------------------------------------------------------------------
  
  #########################################################################################
  #
  #  Volker Blum, FHI 2009 : Test run input file control.in for simple H2O
  #
  #########################################################################################
  #
  #  Physical model
  #
    xc                 pbe
    vdw_correction_hirshfeld
    spin               none
    relativistic       none
    charge             0.
  #
  #  SCF convergence
  #
    occupation_type    gaussian 0.01
    mixer              pulay
      n_max_pulay        10
      charge_mix_param   0.2
    sc_accuracy_rho    1E-5
    sc_accuracy_eev    1E-3
    sc_accuracy_etot   1E-6
    sc_accuracy_forces 1E-4
    sc_iter_limit      100
  #
  #  Relaxation
  #
  #  relax_geometry   bfgs 1.e-3
  #
  ################################################################################
  #
  #  FHI-aims code project
  #  VB, Fritz-Haber Institut, 2009
  #
  #  Suggested "light" defaults for H atom (to be pasted into control.in file)
  #  Be sure to double-check any results obtained with these settings for post-processing,
  #  e.g., with the "tight" defaults and larger basis sets.
  #
  ################################################################################
    species        H
  #     global species definitions
      nucleus             1
      mass                1.00794
  #
      l_hartree           4
  #
      cut_pot             3.5  1.5  1.0
      basis_dep_cutoff    1e-4
  #
      radial_base         24 5.0
      radial_multiplier   1
      angular_grids       specified
        division   0.2421   50
        division   0.3822  110
        division   0.4799  194
        division   0.5341  302
  #      division   0.5626  434
  #      division   0.5922  590
  #      division   0.6542  770
  #      division   0.6868 1202
  #      outer_grid  770
        outer_grid  302
  ################################################################################
  #
  #  Definition of "minimal" basis
  #
  ################################################################################
  #     valence basis states
      valence      1  s   1.
  #     ion occupancy
      ion_occ      1  s   0.5
  ################################################################################
  #
  #  Suggested additional basis functions. For production calculations,
  #  uncomment them one after another (the most important basis functions are
  #  listed first).
  #
  #  Basis constructed for dimers: 0.5 A, 0.7 A, 1.0 A, 1.5 A, 2.5 A
  #
  ################################################################################
  #  "First tier" - improvements: -1014.90 meV to -62.69 meV
       hydro 2 s 2.1
       hydro 2 p 3.5
  #  "Second tier" - improvements: -12.89 meV to -1.83 meV
  #     hydro 1 s 0.85
  #     hydro 2 p 3.7
  #     hydro 2 s 1.2
  #     hydro 3 d 7
  #  "Third tier" - improvements: -0.25 meV to -0.12 meV
  #     hydro 4 f 11.2
  #     hydro 3 p 4.8
  #     hydro 4 d 9
  #     hydro 3 s 3.2
  ################################################################################
  #
  #  FHI-aims code project
  #  VB, Fritz-Haber Institut, 2009
  #
  #  Suggested "light" defaults for C atom (to be pasted into control.in file)
  #  Be sure to double-check any results obtained with these settings for post-processing,
  #  e.g., with the "tight" defaults and larger basis sets.
  #
  ################################################################################
    species        C
  #     global species definitions
      nucleus             6
      mass                12.0107
  #
      l_hartree           4
  #
      cut_pot             3.5  1.5  1.0
      basis_dep_cutoff    1e-4
  #
      radial_base         34 5.0
      radial_multiplier   1
      angular_grids specified
        division   0.3326   50
        division   0.5710  110
        division   0.7727  194
        division   0.8772  302
  #      division   0.9334  434
  #      division   0.9625  590
  #      division   0.9924  770
  #      division   1.0230  974
  #      division   1.4589 1202
  #     outer_grid  974
       outer_grid 302
  ################################################################################
  #
  #  Definition of "minimal" basis
  #
  ################################################################################
  #     valence basis states
      valence      2  s   2.
      valence      2  p   2.
  #     ion occupancy
      ion_occ      2  s   1.
      ion_occ      2  p   1.
  ################################################################################
  #
  #  Suggested additional basis functions. For production calculations,
  #  uncomment them one after another (the most important basis functions are
  #  listed first).
  #
  #  Constructed for dimers: 1.0 A, 1.25 A, 1.5 A, 2.0 A, 3.0 A
  #
  ################################################################################
  #  "First tier" - improvements: -1214.57 meV to -155.61 meV
       hydro 2 p 1.7
       hydro 3 d 6
       hydro 2 s 4.9
  #  "Second tier" - improvements: -67.75 meV to -5.23 meV
  #     hydro 4 f 9.8
  #     hydro 3 p 5.2
  #     hydro 3 s 4.3
  #     hydro 5 g 14.4
  #     hydro 3 d 6.2
  #  "Third tier" - improvements: -2.43 meV to -0.60 meV
  #     hydro 2 p 5.6
  #     hydro 2 s 1.4
  #     hydro 3 d 4.9
  #     hydro 4 f 11.2
  #  "Fourth tier" - improvements: -0.39 meV to -0.18 meV
  #     hydro 2 p 2.1
  #     hydro 5 g 16.4
  #     hydro 4 d 13.2
  #     hydro 3 s 13.6
  #     hydro 4 f 17.6
  #  Further basis functions - improvements: -0.08 meV and below
  #     hydro 3 s 2
  #     hydro 3 p 6
  #     hydro 4 d 20
  ################################################################################
  #
  #  FHI-aims code project
  #  VB, Fritz-Haber Institut, 2009
  #
  #  Suggested "light" defaults for N atom (to be pasted into control.in file)
  #  Be sure to double-check any results obtained with these settings for post-processing,
  #  e.g., with the "tight" defaults and larger basis sets.
  #
  ################################################################################
    species        N
  #     global species definitions
      nucleus             7
      mass                14.0067
  #
      l_hartree           4
  #
      cut_pot             3.5  1.5  1.0
      basis_dep_cutoff    1e-4
  #
      radial_base         35 5.0
      radial_multiplier   1
      angular_grids       specified
        division   0.2599   50
        division   0.4601  110
        division   0.5885  194
        division   0.6503  302
  #      division   0.6939  434
  #      division   0.7396  590
  #      division   0.7632  770
  #      division   0.8122  974
  #      division   1.1604 1202
  #      outer_grid  974
        outer_grid  302
  ################################################################################
  #
  #  Definition of "minimal" basis
  #
  ################################################################################
  #     valence basis states
      valence      2  s   2.
      valence      2  p   3.
  #     ion occupancy
      ion_occ      2  s   1.
      ion_occ      2  p   2.
  ################################################################################
  #
  #  Suggested additional basis functions. For production calculations,
  #  uncomment them one after another (the most important basis functions are
  #  listed first).
  #
  #  Constructed for dimers: 1.0 A, 1.1 A, 1.5 A, 2.0 A, 3.0 A
  #
  ################################################################################
  #  "First tier" - improvements: -1193.42 meV to -220.60 meV
       hydro 2 p 1.8
       hydro 3 d 6.8
       hydro 3 s 5.8
  #  "Second tier" - improvements: -80.21 meV to -6.86 meV
  #     hydro 4 f 10.8
  #     hydro 3 p 5.8
  #     hydro 1 s 0.8
  #     hydro 5 g 16
  #     hydro 3 d 4.9
  #  "Third tier" - improvements: -4.29 meV to -0.53 meV
  #     hydro 3 s 16
  #     ionic 2 p auto
  #     hydro 3 d 6.6
  #     hydro 4 f 11.6
  #  "Fourth tier" - improvements: -0.75 meV to -0.25 meV
  #     hydro 2 p 4.5
  #     hydro 2 s 2.4
  #     hydro 5 g 14.4
  #     hydro 4 d 14.4
  #     hydro 4 f 16.8
  # Further basis functions - -0.21 meV and below
  #     hydro 3 p 14.8
  #     hydro 3 s 4.4
  #     hydro 3 d 19.6
  #     hydro 5 g 12.8
  ################################################################################
  #
  #  FHI-aims code project
  #  VB, Fritz-Haber Institut, 2009
  #
  #  Suggested "light" defaults for O atom (to be pasted into control.in file)
  #  Be sure to double-check any results obtained with these settings for post-processing,
  #  e.g., with the "tight" defaults and larger basis sets.
  #
  ################################################################################
    species        O
  #     global species definitions
      nucleus             8
      mass                15.9994
  #
      l_hartree           4
  #
      cut_pot             3.5  1.5  1.0
      basis_dep_cutoff    1e-4
  #
      radial_base         36 5.0
      radial_multiplier   1
       angular_grids specified
        division   0.2659   50
        division   0.4451  110
        division   0.6052  194
        division   0.7543  302
  #      division   0.8014  434
  #      division   0.8507  590
  #      division   0.8762  770
  #      division   0.9023  974
  #      division   1.2339 1202
  #      outer_grid 974
        outer_grid 302
  ################################################################################
  #
  #  Definition of "minimal" basis
  #
  ################################################################################
  #     valence basis states
      valence      2  s   2.
      valence      2  p   4.
  #     ion occupancy
      ion_occ      2  s   1.
      ion_occ      2  p   3.
  ################################################################################
  #
  #  Suggested additional basis functions. For production calculations,
  #  uncomment them one after another (the most important basis functions are
  #  listed first).
  #
  #  Constructed for dimers: 1.0 A, 1.208 A, 1.5 A, 2.0 A, 3.0 A
  #
  ################################################################################
  #  "First tier" - improvements: -699.05 meV to -159.38 meV
       hydro 2 p 1.8
       hydro 3 d 7.6
       hydro 3 s 6.4
  #  "Second tier" - improvements: -49.91 meV to -5.39 meV
  #     hydro 4 f 11.6
  #     hydro 3 p 6.2
  #     hydro 3 d 5.6
  #     hydro 5 g 17.6
  #     hydro 1 s 0.75
  #  "Third tier" - improvements: -2.83 meV to -0.50 meV
  #     ionic 2 p auto
  #     hydro 4 f 10.8
  #     hydro 4 d 4.7
  #     hydro 2 s 6.8
  #  "Fourth tier" - improvements: -0.40 meV to -0.12 meV
  #     hydro 3 p 5
  #     hydro 3 s 3.3
  #     hydro 5 g 15.6
  #     hydro 4 f 17.6
  #     hydro 4 d 14
  # Further basis functions - -0.08 meV and below
  #     hydro 3 s 2.1
  #     hydro 4 d 11.6
  #     hydro 3 p 16
  #     hydro 2 s 17.2
  
  -----------------------------------------------------------------------
  Completed first pass over input file control.in .
  -----------------------------------------------------------------------
  
  
  -----------------------------------------------------------------------
  Parsing geometry.in (first pass over file, find array dimensions only).
  The contents of geometry.in will be repeated verbatim below
  unless switched off by setting 'verbatim_writeout .false.' .
  in the first line of geometry.in .
  -----------------------------------------------------------------------
  
  atom  0.00000 0.00000 0.00000 C
  atom  1.09300 0.00000 0.00000 H
  atom  -0.47961 0.00000 -1.41207 N
  atom  -1.21916 0.69714 -1.50632 H
  atom  0.30147 0.23094 -2.02256 H
  atom  -0.49584 1.26211 0.72868 C
  atom  -1.58789 1.28919 0.74431 H
  atom  -0.13407 1.27425 1.75947 H
  atom  -0.13407 2.16087 0.22380 H
  atom  -0.39425 -1.28861 0.74398 C
  atom  -0.10189 -1.56493 1.88303 O
  atom  -1.10210 -2.13717 0.06896 O
  atom  -1.10808 -1.67036 -0.78370 H
  
  -----------------------------------------------------------------------
  Completed first pass over input file geometry.in .
  -----------------------------------------------------------------------
  

  Basic array size parameters:
  | Number of species                 :        4
  | Number of atoms                   :       13
  | Max. basis fn. angular momentum   :        2
  | Max. atomic/ionic basis occupied n:        2
  | Max. number of basis fn. types    :        2
  | Max. radial fns per species/type  :        3
  | Max. logarithmic grid size        :     1301
  | Max. radial integration grid size :       36
  | Max. angular integration grid size:      302
  | Max. angular grid division number :        8
  | Radial grid for Hartree potential :     1301
  | Number of spin channels           :        1

------------------------------------------------------------
          Reading file control.in.
------------------------------------------------------------
  XC: Using PBE gradient-corrected functionals.
  Spin treatment: No spin polarisation.
  Non-relativistic treatment of kinetic energy.
  Charge =   0.000000E+00: Neutral system requested explicitly.
  Occupation type: Gaussian broadening, width =   0.100000E-01 eV.
  Using pulay charge density mixing.
  Pulay mixing - number of memorized iterations:   10
  Charge density mixing - mixing parameter:     0.2000
  Convergence accuracy of self-consistent charge density:  0.1000E-04
  Convergence accuracy of sum of eigenvalues:  0.1000E-02
  Convergence accuracy of total energy:  0.1000E-05
  Convergence accuracy of forces:  0.1000E-03
  Maximum number of s.-c. iterations  :   100
 
  Reading configuration options for species H                   .
  | Found nuclear charge :   1.0000
  | Found atomic mass :    1.00794000000000      amu
  | Found l_max for Hartree potential  :   4
  | Found cutoff potl. onset [A], width [A], scale factor :    3.50000    1.50000    1.00000
  | Threshold for basis-dependent cutoff potential is   0.100000E-03
  | Found data for basic radial integration grid :    24 points, outermost radius =    5.000 A
  | Found multiplier for basic radial grid :   1
  | Found angular grid specification: user-specified.
  | Specified grid contains     5 separate shells.
  | Check grid settings after all constraints further below.
  | Found free-atom valence shell :  1 s   1.000
  | No ionic wave fns used. Skipping ion_occ.
  | Found hydrogenic basis function :  2 s   2.100
  | Found hydrogenic basis function :  2 p   3.500
  Species H                   : Missing cutoff potential type.
  Defaulting to exp(1/x)/(1-x)^2 type cutoff potential.
  Species H : No 'logarithmic' tag. Using default grid for free atom:
  | Default logarithmic grid data [bohr] : 0.1000E-03 0.1000E+03 0.1012E+01
  Species H : On-site basis accuracy parameter (for Gram-Schmidt orthonormalisation) not specified.
  Using default value basis_acc =  0.1000000E-03.
  Species H                   : Using default innermost maximum threshold i_radial=  2 for radial functions.
  Species H                   : Default cutoff onset for free atom density etc. : 0.35000000E+01 AA.
  Species H                   : Basic radial grid will be enhanced according to radial_multiplier =   1, to contain    24 grid points.
 
  Reading configuration options for species C                   .
  | Found nuclear charge :   6.0000
  | Found atomic mass :    12.0107000000000      amu
  | Found l_max for Hartree potential  :   4
  | Found cutoff potl. onset [A], width [A], scale factor :    3.50000    1.50000    1.00000
  | Threshold for basis-dependent cutoff potential is   0.100000E-03
  | Found data for basic radial integration grid :    34 points, outermost radius =    5.000 A
  | Found multiplier for basic radial grid :   1
  | Found angular grid specification: user-specified.
  | Specified grid contains     5 separate shells.
  | Check grid settings after all constraints further below.
  | Found free-atom valence shell :  2 s   2.000
  | Found free-atom valence shell :  2 p   2.000
  | No ionic wave fns used. Skipping ion_occ.
  | No ionic wave fns used. Skipping ion_occ.
  | Found hydrogenic basis function :  2 p   1.700
  | Found hydrogenic basis function :  3 d   6.000
  | Found hydrogenic basis function :  2 s   4.900
  Species C                   : Missing cutoff potential type.
  Defaulting to exp(1/x)/(1-x)^2 type cutoff potential.
  Species C : No 'logarithmic' tag. Using default grid for free atom:
  | Default logarithmic grid data [bohr] : 0.1000E-03 0.1000E+03 0.1012E+01
  Species C : On-site basis accuracy parameter (for Gram-Schmidt orthonormalisation) not specified.
  Using default value basis_acc =  0.1000000E-03.
  Species C                   : Using default innermost maximum threshold i_radial=  2 for radial functions.
  Species C                   : Default cutoff onset for free atom density etc. : 0.35000000E+01 AA.
  Species C                   : Basic radial grid will be enhanced according to radial_multiplier =   1, to contain    34 grid points.
 
  Reading configuration options for species N                   .
  | Found nuclear charge :   7.0000
  | Found atomic mass :    14.0067000000000      amu
  | Found l_max for Hartree potential  :   4
  | Found cutoff potl. onset [A], width [A], scale factor :    3.50000    1.50000    1.00000
  | Threshold for basis-dependent cutoff potential is   0.100000E-03
  | Found data for basic radial integration grid :    35 points, outermost radius =    5.000 A
  | Found multiplier for basic radial grid :   1
  | Found angular grid specification: user-specified.
  | Specified grid contains     5 separate shells.
  | Check grid settings after all constraints further below.
  | Found free-atom valence shell :  2 s   2.000
  | Found free-atom valence shell :  2 p   3.000
  | No ionic wave fns used. Skipping ion_occ.
  | No ionic wave fns used. Skipping ion_occ.
  | Found hydrogenic basis function :  2 p   1.800
  | Found hydrogenic basis function :  3 d   6.800
  | Found hydrogenic basis function :  3 s   5.800
  Species N                   : Missing cutoff potential type.
  Defaulting to exp(1/x)/(1-x)^2 type cutoff potential.
  Species N : No 'logarithmic' tag. Using default grid for free atom:
  | Default logarithmic grid data [bohr] : 0.1000E-03 0.1000E+03 0.1012E+01
  Species N : On-site basis accuracy parameter (for Gram-Schmidt orthonormalisation) not specified.
  Using default value basis_acc =  0.1000000E-03.
  Species N                   : Using default innermost maximum threshold i_radial=  2 for radial functions.
  Species N                   : Default cutoff onset for free atom density etc. : 0.35000000E+01 AA.
  Species N                   : Basic radial grid will be enhanced according to radial_multiplier =   1, to contain    35 grid points.
 
  Reading configuration options for species O                   .
  | Found nuclear charge :   8.0000
  | Found atomic mass :    15.9994000000000      amu
  | Found l_max for Hartree potential  :   4
  | Found cutoff potl. onset [A], width [A], scale factor :    3.50000    1.50000    1.00000
  | Threshold for basis-dependent cutoff potential is   0.100000E-03
  | Found data for basic radial integration grid :    36 points, outermost radius =    5.000 A
  | Found multiplier for basic radial grid :   1
  | Found angular grid specification: user-specified.
  | Specified grid contains     5 separate shells.
  | Check grid settings after all constraints further below.
  | Found free-atom valence shell :  2 s   2.000
  | Found free-atom valence shell :  2 p   4.000
  | No ionic wave fns used. Skipping ion_occ.
  | No ionic wave fns used. Skipping ion_occ.
  | Found hydrogenic basis function :  2 p   1.800
  | Found hydrogenic basis function :  3 d   7.600
  | Found hydrogenic basis function :  3 s   6.400
  Species O                   : Missing cutoff potential type.
  Defaulting to exp(1/x)/(1-x)^2 type cutoff potential.
  Species O : No 'logarithmic' tag. Using default grid for free atom:
  | Default logarithmic grid data [bohr] : 0.1000E-03 0.1000E+03 0.1012E+01
  Species O : On-site basis accuracy parameter (for Gram-Schmidt orthonormalisation) not specified.
  Using default value basis_acc =  0.1000000E-03.
  Species O                   : Using default innermost maximum threshold i_radial=  2 for radial functions.
  Species O                   : Default cutoff onset for free atom density etc. : 0.35000000E+01 AA.
  Species O                   : Basic radial grid will be enhanced according to radial_multiplier =   1, to contain    36 grid points.
 
  Finished reading input file 'control.in'. Consistency checks are next.
 
  MPI_IN_PLACE appears to work with this MPI implementation.
  | Keeping use_mpi_in_place .true. (see manual).
  Target number of points in a grid batch is not set. Defaulting to  100
  Method for grid partitioning is not set. Defaulting to parallel hash+maxmin partitioning.
  Batch size limit is not set. Defaulting to    200
  By default, will store active basis functions for each batch.
  If in need of memory, prune_basis_once .false. can be used to disable this option.
  communication_type for Hartree potential was not specified.
  Defaulting to calc_hartree .
  Pulay mixer: Number of initial linear mixing iterations not set.
  Defaulting to    0 iterations.
  Work space size for distributed Hartree potential not set.
  Defaulting to   0.200000E+03 MB.
  Algorithm-dependent basis array size parameters:
  | n_max_pulay                         :       10
  Presetting      1001 iterations before the initial mixing cycle
  is restarted anyway using the sc_init_iter criterion / keyword.
  Presetting a factor      1.000 between actual scf density residual
  and density convergence criterion sc_accuracy_rho below which sc_init_iter
  takes no effect.
  Geometry relaxation not requested: no relaxation will be performed.
  Handling of forces: Unphysical translation and rotation will be removed from forces.
  No accuracy limit for integral partition fn. given. Defaulting to  0.1000E-14.
  No threshold value for u(r) in integrations given. Defaulting to  0.1000E-05.
  No accuracy for occupation numbers given. Defaulting to  0.1000E-12.
  No threshold value for occupation numbers given. Defaulting to  0.0000E+00.
  No accuracy for fermi level given. Defaulting to  0.1000E-19.
  Maximum # of iterations to find E_F not set. Defaulting to  200.
  Preferred method for the eigenvalue solver ('KS_method') not specified in 'control.in'.
  Defaulting to serial version, 'lapack_fast'.
  Will not use alltoall communication since running on < 1024 CPUs.
  Threshold for basis singularities not set.
  Default threshold for basis singularities:  0.1000E-04
  partition_type (choice of integration weights) for integrals was not specified.
  | Using a version of the partition function of Stratmann and coworkers ('stratmann_smoother').
  | At each grid point, the set of atoms used to build the partition table is smoothly restricted to
  | only those atoms whose free-atom density would be non-zero at that grid point.
  Partitioning for Hartree potential was not defined. Using partition_type for integrals.
  | Adjusted default value of keyword multip_moments_threshold to:       0.10000000E-11
  | This value may affect high angular momentum components of the Hartree potential in periodic systems.
  No q(lm)/r^(l+1) cutoff set for long-range Hartree potential.
  | Using default value of  0.100000E-09 .
  | Verify using the multipole_threshold keyword.
  Defaulting to new monopole extrapolation.
  Density update method: automatic selection selected.
------------------------------------------------------------


------------------------------------------------------------
          Reading geometry description geometry.in.
------------------------------------------------------------
  Input structure read successfully.
  The structure contains       13 atoms,  and a total of         48.000 electrons.

  Input geometry:
  | No unit cell requested.
  | Atomic structure:
  |       Atom                x [A]            y [A]            z [A]
  |    1: Species C             0.00000000        0.00000000        0.00000000
  |    2: Species H             1.09300000        0.00000000        0.00000000
  |    3: Species N            -0.47961000        0.00000000       -1.41207000
  |    4: Species H            -1.21916000        0.69714000       -1.50632000
  |    5: Species H             0.30147000        0.23094000       -2.02256000
  |    6: Species C            -0.49584000        1.26211000        0.72868000
  |    7: Species H            -1.58789000        1.28919000        0.74431000
  |    8: Species H            -0.13407000        1.27425000        1.75947000
  |    9: Species H            -0.13407000        2.16087000        0.22380000
  |   10: Species C            -0.39425000       -1.28861000        0.74398000
  |   11: Species O            -0.10189000       -1.56493000        1.88303000
  |   12: Species O            -1.10210000       -2.13717000        0.06896000
  |   13: Species H            -1.10808000       -1.67036000       -0.78370000
  |

  | The smallest distance between any two atoms is         0.97209897 AA.
  |
  | The first atom of this pair is atom number                     12 .
  | The second atom of this pair is atom number                    13 .

  Number of empty states per atom not set in control.in - providing a guess from actual geometry.
  | Total number of empty states used during s.c.f. cycle:       29
  If you use a very high smearing, use empty_states (per atom!) in control.in to increase this value.

  Structure-dependent array size parameters: 
  | Maximum number of distinct radial functions  :       21
  | Maximum number of basis functions            :      119
  | Number of Kohn-Sham states (occupied + empty):       53
------------------------------------------------------------

------------------------------------------------------------
          Preparing all fixed parts of the calculation.
------------------------------------------------------------
  Determining machine precision:
    2.225073858507201E-308
  Setting up grids for atomic and cluster calculations.

  Creating wave function, potential, and density for free atoms.

  Species: H

  List of occupied orbitals and eigenvalues:
    n    l              occ      energy [Ha]    energy [eV]
    1    0           1.0000        -0.237589        -6.4651


  Species: C

  List of occupied orbitals and eigenvalues:
    n    l              occ      energy [Ha]    energy [eV]
    1    0           2.0000       -10.038835      -273.1706
    2    0           2.0000        -0.502696       -13.6791
    2    1           2.0000        -0.191971        -5.2238


  Species: N

  List of occupied orbitals and eigenvalues:
    n    l              occ      energy [Ha]    energy [eV]
    1    0           2.0000       -14.128000      -384.4424
    2    0           2.0000        -0.681077       -18.5330
    2    1           3.0000        -0.259788        -7.0692


  Species: O

  List of occupied orbitals and eigenvalues:
    n    l              occ      energy [Ha]    energy [eV]
    1    0           2.0000       -18.898188      -514.2459
    2    0           2.0000        -0.878505       -23.9053
    2    1           4.0000        -0.331779        -9.0282

  Creating fixed part of basis set: Ionic, confined, hydrogenic.
 
  H                    hydrogenic:
 
  List of hydrogenic basis orbitals: 
    n    l      effective z      eigenvalue [eV]  inner max. [A]     outer max. [A]     outer radius [A]   
    2    0         2.100000       -14.9728           0.193243           1.317208           4.583499
    2    1         3.500000       -41.6669           0.602369           0.602369           3.723403
 
 
  C                    hydrogenic:
 
  List of hydrogenic basis orbitals: 
    n    l      effective z      eigenvalue [eV]  inner max. [A]     outer max. [A]     outer radius [A]   
    2    1         1.700000        -9.7616           1.230570           1.230570           4.607917
    3    2         6.000000       -54.4224           0.792453           0.792453           3.883070
    2    0         4.900000       -81.6679           0.082559           0.562749           3.078220
 
 
  N                    hydrogenic:
 
  List of hydrogenic basis orbitals: 
    n    l      effective z      eigenvalue [eV]  inner max. [A]     outer max. [A]     outer radius [A]   
    2    1         1.800000       -10.9749           1.177451           1.177451           4.573712
    3    2         6.800000       -69.9026           0.704619           0.704619           3.538137
    3    0         5.800000       -50.8545           0.067388           1.191934           4.250239
 
 
  O                    hydrogenic:
 
  List of hydrogenic basis orbitals: 
    n    l      effective z      eigenvalue [eV]  inner max. [A]     outer max. [A]     outer radius [A]   
    2    1         1.800000       -10.9749           1.164242           1.164242           4.578029
    3    2         7.600000       -87.3180           0.624125           0.624125           3.251020
    3    0         6.400000       -61.9207           0.061167           1.081902           4.001998
 

  Adding cutoff potential to free-atom effective potential.
  Creating atomic-like basis functions for current effective potential.

  Species H                   :

  List of atomic basis orbitals and eigenvalues:
    n    l      energy [Ha]    energy [eV]    outer radius [A]
    1    0        -0.237589        -6.4651       4.527807


  Species C                   :

  List of atomic basis orbitals and eigenvalues:
    n    l      energy [Ha]    energy [eV]    outer radius [A]
    1    0       -10.038835      -273.1706       1.934409
    2    0        -0.502696       -13.6791       4.496620
    2    1        -0.191971        -5.2238       4.551928


  Species N                   :

  List of atomic basis orbitals and eigenvalues:
    n    l      energy [Ha]    energy [eV]    outer radius [A]
    1    0       -14.128000      -384.4424       1.637919
    2    0        -0.681077       -18.5330       4.463241
    2    1        -0.259788        -7.0692       4.518138


  Species O                   :

  List of atomic basis orbitals and eigenvalues:
    n    l      energy [Ha]    energy [eV]    outer radius [A]
    1    0       -18.898188      -514.2459       1.415765
    2    0        -0.878505       -23.9053       4.413171
    2    1        -0.331779        -9.0282       4.522403

  Assembling full basis from fixed parts.
  | Species H :   atomic orbital   1 s accepted.
  | Species H :    hydro orbital   2 s accepted.
  | Species H :    hydro orbital   2 p accepted.
  | Species C :   atomic orbital   1 s accepted.
  | Species C :    hydro orbital   2 s accepted.
  | Species C :   atomic orbital   2 s accepted.
  | Species C :   atomic orbital   2 p accepted.
  | Species C :    hydro orbital   2 p accepted.
  | Species C :    hydro orbital   3 d accepted.
  | Species N :   atomic orbital   1 s accepted.
  | Species N :    hydro orbital   3 s accepted.
  | Species N :   atomic orbital   2 s accepted.
  | Species N :   atomic orbital   2 p accepted.
  | Species N :    hydro orbital   2 p accepted.
  | Species N :    hydro orbital   3 d accepted.
  | Species O :   atomic orbital   1 s accepted.
  | Species O :    hydro orbital   3 s accepted.
  | Species O :   atomic orbital   2 s accepted.
  | Species O :   atomic orbital   2 p accepted.
  | Species O :    hydro orbital   2 p accepted.
  | Species O :    hydro orbital   3 d accepted.
 
  Basis size parameters after reduction:
  | Total number of radial functions:       21
  | Total number of basis functions :      119
 
  Per-task memory consumption for arrays in subroutine allocate_ext:
  |           5.250512MB.
  Testing on-site integration grid accuracy.
  |  Species  Function  <phi|h_atom|phi> (log., in eV)  <phi|h_atom|phi> (rad., in eV)
           1        1                 -6.4663192853                 -6.4651273558
           1        2                 13.7111246313                 13.7170609718
           1        3                 25.2673269279                 25.2674696378
           2        4               -273.1705927641               -273.1705631568
           2        5                -10.7109323383                -10.7107120029
           2        6                 17.4381822266                 17.4352413244
           2        7                 -5.2255326521                 -5.2270484734
           2        8                  8.6835629259                  8.6603288385
           2        9                 27.4952418996                 27.4953360207
           3       10               -384.4424306495               -384.4423701208
           3       11                 12.5842251816                 12.5842222903
           3       12                -15.7264628251                -15.7264433455
           3       13                 -7.0696854293                 -7.0701769954
           3       14                  8.8090390882                  8.7901077751
           3       15                 35.9586762123                 35.9588528632
           4       16               -514.2458688638               -514.2457643834
           4       17                 15.1795651126                 15.1795290741
           4       18                -21.5359799773                -21.5360846186
           4       19                 -9.0283069236                 -9.0284644067
           4       20                  8.3027758564                  8.2834874195
           4       21                 45.8339351984                 45.8338762259

  Preparing densities etc. for the partition functions (integrals / Hartree potential).

  Preparations completed.
  max(cpu_time)          :      0.148 s.
  Wall clock time (cpu1) :      0.148 s.
------------------------------------------------------------

------------------------------------------------------------
          Begin self-consistency loop: Initialization.

          Date     :  20200710, Time     :  144125.186
------------------------------------------------------------

  Initializing index lists of integration centers etc. from given atomic structure:
  | Number of centers in hartree potential         :        13
  | Number of centers in hartree multipole         :        13
  | Number of centers in electron density summation:        13
  | Number of centers in basis integrals           :        13
  | Number of centers in integrals                 :        13
  | Number of centers in hamiltonian               :        13
  Partitioning the integration grid into batches with parallel hashing+maxmin method.
  | Number of batches:      958
  | Maximal batch size:     139
  | Minimal batch size:      66
  | Average batch size:      72.699
  | Standard deviation of batch sizes:      17.240

  Integration load balanced across     1 MPI tasks.
  Work distribution over tasks is as follows:
  Task     0 has      69646 integration points.
  Initializing partition tables, free-atom densities, potentials, etc. across the integration grid (initialize_grid_storage).
  | initialize_grid_storage: Actual outermost partition radius vs. multipole_radius_free
  | (-- VB: in principle, multipole_radius_free should be larger, hence this output)
  | Species        1: Confinement radius =              4.999999999999999 AA, multipole_radius_free =              5.054417573612229 AA.
  | Species        1: outer_partition_radius set to              5.054417573612229 AA .
  | Species        2: Confinement radius =              4.999999999999999 AA, multipole_radius_free =              5.019602836301480 AA.
  | Species        2: outer_partition_radius set to              5.019602836301480 AA .
  | Species        3: Confinement radius =              4.999999999999999 AA, multipole_radius_free =              5.043624274424571 AA.
  | Species        3: outer_partition_radius set to              5.043624274424571 AA .
  | Species        4: Confinement radius =              4.999999999999999 AA, multipole_radius_free =              5.048384829883283 AA.
  | Species        4: outer_partition_radius set to              5.048384829883283 AA .
  | Original list of interatomic distances with          13 x         13 entries is created.
  | Net number of integration points:    69646
  | of which are non-zero points    :    59401
  Renormalizing the initial density to the exact electron count on the 3D integration grid.
  | Initial density: Formal number of electrons (from input files) :      48.0000000000
  | Integrated number of electrons on 3D grid     :      47.9999036284
  | Charge integration error                      :      -0.0000963716
  | Normalization factor for density and gradient :       1.0000020077
  Obtaining max. number of non-zero basis functions in each batch (get_n_compute_maxes).
  | Maximal number of non-zero basis functions:      119 in task     0
  Selecting the method for density update.
  Loop over occupied states selected for charge density update.
  Allocating        0.050 MB for KS_eigenvector
  Integrating Hamiltonian matrix: batch-based integration.
  Time summed over all CPUs for integration: real work        0.497 s, elapsed        0.497 s
  Integrating overlap matrix.
  Time summed over all CPUs for integration: real work        0.214 s, elapsed        0.214 s

  Updating Kohn-Sham eigenvalues and eigenvectors using ELSI and the ELPA eigensolver.
  Overlap matrix is nonsingular
  | Lowest eigenvalue of overlap  :  0.43E-02
  | Highest eigenvalue of overlap :  0.63E+01
  Finished singularity check of overlap matrix
  | Time :     0.002 s
  Finished Cholesky decomposition
  | Time :     0.000 s
  Finished transformation to standard eigenproblem
  | Time :     0.000 s
  Starting LAPACK eigensolver
  Finished solving standard eigenproblem
  | Time :     0.002 s
  Finished back-transformation of eigenvectors
  | Time :     0.000 s

  Obtaining occupation numbers and chemical potential using ELSI.
  | Chemical potential (Fermi level):    -9.66238672eV
  Writing Kohn-Sham eigenvalues.

  State    Occupation    Eigenvalue [Ha]    Eigenvalue [eV]
      1       2.00000         -19.007489         -517.22008
      2       2.00000         -18.977118         -516.39364
      3       2.00000         -14.247804         -387.70248
      4       2.00000         -10.166897         -276.65534
      5       2.00000         -10.142043         -275.97902
      6       2.00000         -10.131883         -275.70258
      7       2.00000          -1.181336          -32.14578
      8       2.00000          -1.101448          -29.97193
      9       2.00000          -0.994240          -27.05465
     10       2.00000          -0.859310          -23.38303
     11       2.00000          -0.756518          -20.58592
     12       2.00000          -0.680518          -18.51783
     13       2.00000          -0.633314          -17.23335
     14       2.00000          -0.612547          -16.66826
     15       2.00000          -0.589123          -16.03084
     16       2.00000          -0.557076          -15.15880
     17       2.00000          -0.551508          -15.00729
     18       2.00000          -0.526641          -14.33064
     19       2.00000          -0.522544          -14.21915
     20       2.00000          -0.495683          -13.48823
     21       2.00000          -0.470967          -12.81566
     22       2.00000          -0.428358          -11.65621
     23       2.00000          -0.423297          -11.51850
     24       2.00000          -0.386233          -10.50993
     25       0.00000          -0.148139           -4.03108
     26       0.00000          -0.063428           -1.72596
     27       0.00000          -0.028792           -0.78347
     28       0.00000          -0.010504           -0.28583
     29       0.00000           0.008435            0.22954
     30       0.00000           0.013942            0.37938
     31       0.00000           0.017788            0.48405
     32       0.00000           0.030233            0.82268
     33       0.00000           0.035567            0.96784
     34       0.00000           0.074861            2.03708
     35       0.00000           0.092563            2.51877
     36       0.00000           0.131998            3.59184
     37       0.00000           0.176537            4.80381
     38       0.00000           0.190102            5.17293
     39       0.00000           0.201212            5.47524
     40       0.00000           0.224765            6.11618
     41       0.00000           0.247037            6.72221
     42       0.00000           0.268299            7.30077
     43       0.00000           0.291569            7.93401
     44       0.00000           0.306249            8.33345
     45       0.00000           0.342214            9.31211
     46       0.00000           0.349412            9.50799
     47       0.00000           0.363610            9.89434
     48       0.00000           0.383849           10.44506
     49       0.00000           0.419053           11.40302
     50       0.00000           0.493226           13.42137
     51       0.00000           0.520726           14.16968
     52       0.00000           0.542022           14.74918
     53       0.00000           0.562245           15.29947

  Highest occupied state (VBM) at    -10.50992925 eV
  | Occupation number:      2.00000000

  Lowest unoccupied state (CBM) at    -4.03108064 eV
  | Occupation number:      0.00000000

  Overall HOMO-LUMO gap:      6.47884861 eV.
  Calculating total energy contributions from superposition of free atom densities.

  Total energy components:
  | Sum of eigenvalues            :        -188.88778922 Ha       -5139.89825995 eV
  | XC energy correction          :         -41.80300595 Ha       -1137.51766809 eV
  | XC potential correction       :          53.73973199 Ha        1462.33251001 eV
  | Free-atom electrostatic energy:        -146.82315969 Ha       -3995.26145187 eV
  | Hartree energy correction     :           0.00000000 Ha           0.00000000 eV
  | vdW energy correction         :           0.00000000 Ha           0.00000000 eV
  | Entropy correction            :           0.00000000 Ha           0.00000000 eV
  | ---------------------------
  | Total energy                  :        -323.77422288 Ha       -8810.34486990 eV
  | Total energy, T -> 0          :        -323.77422288 Ha       -8810.34486990 eV  <-- do not rely on this value for anything but (periodic) metals
  | Electronic free energy        :        -323.77422288 Ha       -8810.34486990 eV

  Derived energy quantities:
  | Kinetic energy                :         320.51217312 Ha        8721.57997967 eV
  | Electrostatic energy          :        -602.48339005 Ha      -16394.40718148 eV
  | Energy correction for multipole
  | error in Hartree potential    :           0.00000000 Ha           0.00000000 eV
  | Sum of eigenvalues per atom                           :        -395.37678923 eV
  | Total energy (T->0) per atom                          :        -677.71883615 eV  <-- do not rely on this value for anything but (periodic) metals
  | Electronic free energy per atom                       :        -677.71883615 eV
  Initialize hartree_potential_storage
  Max. number of atoms included in rho_multipole:           13

  End scf initialization - timings             :  max(cpu_time)    wall_clock(cpu1)
  | Time for scf. initialization               :        1.160 s           1.161 s
  | Boundary condition initialization          :        0.000 s           0.000 s
  | Integration                                :        0.711 s           0.712 s
  | Solution of K.-S. eqns.                    :        0.004 s           0.004 s
  | Grid partitioning                          :        0.112 s           0.112 s
  | Preloading free-atom quantities on grid    :        0.002 s           0.003 s
  | Free-atom superposition energy             :        0.085 s           0.085 s
  | Total energy evaluation                    :        0.000 s           0.000 s

  Partial memory accounting:
  | Current value for overall tracked memory usage on task 0  :           0.165 MB
  | Peak value for overall tracked memory usage on task 0     :           0.678 MB after allocating wave
  | Largest tracked array allocation on task 0 so far         :           0.132 MB  when allocating H_times_psi
  Note:  These values currently only include a subset of arrays which are explicitly tracked.
  The "true" memory usage will be greater.
------------------------------------------------------------

------------------------------------------------------------
          Begin self-consistency iteration #    1

  Date     :  20200710, Time     :  144126.347
------------------------------------------------------------
  Evaluating new KS density.
  Integration grid: deviation in total charge (<rho> - N_e) =   1.421085E-14
  Pulay mixing of updated and previous charge densities.

  Evaluating partitioned Hartree potential by multipole expansion.
  | Analytical far-field extrapolation by fixed multipoles:
  | Hartree multipole sum: apparent total charge =  -0.197803E-03
  Summing up the Hartree potential.
  Time summed over all CPUs for potential: real work        0.289 s, elapsed        0.289 s
  | RMS charge density error from multipole expansion :   0.590662E-02

  Integrating Hamiltonian matrix: batch-based integration.
  Time summed over all CPUs for integration: real work        0.496 s, elapsed        0.496 s

  Updating Kohn-Sham eigenvalues and eigenvectors using ELSI and the ELPA eigensolver.
  Finished Cholesky decomposition
  | Time :     0.000 s
  Finished transformation to standard eigenproblem
  | Time :     0.000 s
  Starting LAPACK eigensolver
  Finished solving standard eigenproblem
  | Time :     0.001 s
  Finished back-transformation of eigenvectors
  | Time :     0.000 s

  Obtaining occupation numbers and chemical potential using ELSI.
  | Chemical potential (Fermi level):    -4.43143676eV
  Writing Kohn-Sham eigenvalues.

  State    Occupation    Eigenvalue [Ha]    Eigenvalue [eV]
      1       2.00000         -18.899820         -514.29027
      2       2.00000         -18.826588         -512.29751
      3       2.00000         -14.116103         -384.11870
      4       2.00000         -10.109185         -275.08491
      5       2.00000         -10.069355         -274.00109
      6       2.00000         -10.035755         -273.08678
      7       2.00000          -1.126685          -30.65865
      8       2.00000          -1.031463          -28.06755
      9       2.00000          -0.934453          -25.42776
     10       2.00000          -0.798325          -21.72354
     11       2.00000          -0.706228          -19.21744
     12       2.00000          -0.630043          -17.14434
     13       2.00000          -0.586139          -15.94966
     14       2.00000          -0.556665          -15.14762
     15       2.00000          -0.530433          -14.43381
     16       2.00000          -0.499887          -13.60260
     17       2.00000          -0.485964          -13.22376
     18       2.00000          -0.471392          -12.82724
     19       2.00000          -0.462567          -12.58710
     20       2.00000          -0.438709          -11.93787
     21       2.00000          -0.418320          -11.38306
     22       2.00000          -0.359856           -9.79218
     23       2.00000          -0.355265           -9.66725
     24       2.00000          -0.315160           -8.57593
     25       0.00000          -0.106571           -2.89994
     26       0.00000          -0.040584           -1.10436
     27       0.00000           0.010158            0.27642
     28       0.00000           0.014567            0.39638
     29       0.00000           0.043164            1.17455
     30       0.00000           0.045949            1.25033
     31       0.00000           0.049890            1.35757
     32       0.00000           0.061148            1.66392
     33       0.00000           0.072451            1.97150
     34       0.00000           0.112292            3.05563
     35       0.00000           0.131654            3.58248
     36       0.00000           0.163115            4.43860
     37       0.00000           0.207766            5.65360
     38       0.00000           0.215773            5.87149
     39       0.00000           0.230036            6.25961
     40       0.00000           0.257673            7.01163
     41       0.00000           0.279323            7.60076
     42       0.00000           0.299817            8.15842
     43       0.00000           0.325366            8.85366
     44       0.00000           0.347329            9.45130
     45       0.00000           0.375544           10.21906
     46       0.00000           0.389723           10.60490
     47       0.00000           0.402456           10.95140
     48       0.00000           0.424368           11.54763
     49       0.00000           0.456206           12.41400
     50       0.00000           0.525047           14.28726
     51       0.00000           0.549452           14.95135
     52       0.00000           0.572424           15.57644
     53       0.00000           0.598813           16.29453

  Highest occupied state (VBM) at     -8.57592848 eV
  | Occupation number:      2.00000000

  Lowest unoccupied state (CBM) at    -2.89994110 eV
  | Occupation number:      0.00000000

  Overall HOMO-LUMO gap:      5.67598738 eV.

  Total energy components:
  | Sum of eigenvalues            :        -185.52871637 Ha       -5048.49323689 eV
  | XC energy correction          :         -42.12759383 Ha       -1146.35015363 eV
  | XC potential correction       :          54.16186074 Ha        1473.81921779 eV
  | Free-atom electrostatic energy:        -146.82315969 Ha       -3995.26145187 eV
  | Hartree energy correction     :          -3.28292436 Ha         -89.33291704 eV
  | vdW energy correction         :           0.00000000 Ha           0.00000000 eV
  | Entropy correction            :           0.00000000 Ha           0.00000000 eV
  | ---------------------------
  | Total energy                  :        -323.60053351 Ha       -8805.61854165 eV
  | Total energy, T -> 0          :        -323.60053351 Ha       -8805.61854165 eV  <-- do not rely on this value for anything but (periodic) metals
  | Electronic free energy        :        -323.60053351 Ha       -8805.61854165 eV

  Derived energy quantities:
  | Kinetic energy                :         322.27763436 Ha        8769.62062419 eV
  | Electrostatic energy          :        -603.75057404 Ha      -16428.88901221 eV
  | Energy correction for multipole
  | error in Hartree potential    :           0.01171536 Ha           0.31879107 eV
  | Sum of eigenvalues per atom                           :        -388.34563361 eV
  | Total energy (T->0) per atom                          :        -677.35527243 eV  <-- do not rely on this value for anything but (periodic) metals
  | Electronic free energy per atom                       :        -677.35527243 eV

  Self-consistency convergence accuracy:
  | Change of charge density      :  0.5742E+00
  | Change of sum of eigenvalues  :  0.9141E+02 eV
  | Change of total energy        :  0.4726E+01 eV

  End self-consistency iteration #     1       :  max(cpu_time)    wall_clock(cpu1)
  | Time for this iteration                    :        1.192 s           1.200 s
  | Charge density update                      :        0.395 s           0.397 s
  | Density mixing                             :        0.005 s           0.005 s
  | Hartree multipole update                   :        0.009 s           0.009 s
  | Hartree multipole summation                :        0.283 s           0.290 s
  | Integration                                :        0.496 s           0.496 s
  | Solution of K.-S. eqns.                    :        0.002 s           0.003 s
  | Total energy evaluation                    :        0.000 s           0.000 s

  Partial memory accounting:
  | Current value for overall tracked memory usage on task 0  :           0.165 MB
  | Peak value for overall tracked memory usage on task 0     :           0.695 MB after allocating gradient_basis_wave
  | Largest tracked array allocation on task 0 so far         :           0.397 MB  when allocating gradient_basis_wave
  Note:  These values currently only include a subset of arrays which are explicitly tracked.
  The "true" memory usage will be greater.
------------------------------------------------------------

------------------------------------------------------------
          Begin self-consistency iteration #    2

  Date     :  20200710, Time     :  144127.548
------------------------------------------------------------
  Evaluating new KS density.
  Integration grid: deviation in total charge (<rho> - N_e) =  -4.263256E-14
  Pulay mixing of updated and previous charge densities.

  Evaluating partitioned Hartree potential by multipole expansion.
  | Analytical far-field extrapolation by fixed multipoles:
  | Hartree multipole sum: apparent total charge =  -0.329225E-03
  Summing up the Hartree potential.
  Time summed over all CPUs for potential: real work        0.283 s, elapsed        0.283 s
  | RMS charge density error from multipole expansion :   0.141364E-01

  Integrating Hamiltonian matrix: batch-based integration.
  Time summed over all CPUs for integration: real work        0.497 s, elapsed        0.497 s

  Updating Kohn-Sham eigenvalues and eigenvectors using ELSI and the ELPA eigensolver.
  Finished Cholesky decomposition
  | Time :     0.000 s
  Finished transformation to standard eigenproblem
  | Time :     0.000 s
  Starting LAPACK eigensolver
  Finished solving standard eigenproblem
  | Time :     0.002 s
  Finished back-transformation of eigenvectors
  | Time :     0.000 s

  Obtaining occupation numbers and chemical potential using ELSI.
  | Chemical potential (Fermi level):    -3.16343233eV
  Highest occupied state (VBM) at     -6.60551457 eV
  | Occupation number:      2.00000000

  Lowest unoccupied state (CBM) at    -1.47518171 eV
  | Occupation number:      0.00000000

  Overall HOMO-LUMO gap:      5.13033286 eV.

  Checking to see if s.c.f. parameters should be adjusted.

  Total energy components:
  | Sum of eigenvalues            :        -181.94109491 Ha       -4950.86908993 eV
  | XC energy correction          :         -42.48692200 Ha       -1156.12797082 eV
  | XC potential correction       :          54.62763708 Ha        1486.49363694 eV
  | Free-atom electrostatic energy:        -146.82315969 Ha       -3995.26145187 eV
  | Hartree energy correction     :          -6.90068799 Ha        -187.77727428 eV
  | vdW energy correction         :           0.00000000 Ha           0.00000000 eV
  | Entropy correction            :           0.00000000 Ha           0.00000000 eV
  | ---------------------------
  | Total energy                  :        -323.52422751 Ha       -8803.54214997 eV
  | Total energy, T -> 0          :        -323.52422751 Ha       -8803.54214997 eV  <-- do not rely on this value for anything but (periodic) metals
  | Electronic free energy        :        -323.52422751 Ha       -8803.54214997 eV

  Derived energy quantities:
  | Kinetic energy                :         323.60273730 Ha        8805.67850985 eV
  | Electrostatic energy          :        -604.64004281 Ha      -16453.09268900 eV
  | Energy correction for multipole
  | error in Hartree potential    :           0.02583161 Ha           0.70291381 eV
  | Sum of eigenvalues per atom                           :        -380.83608384 eV
  | Total energy (T->0) per atom                          :        -677.19555000 eV  <-- do not rely on this value for anything but (periodic) metals
  | Electronic free energy per atom                       :        -677.19555000 eV

  Self-consistency convergence accuracy:
  | Change of charge density      :  0.3585E+00
  | Change of sum of eigenvalues  :  0.9762E+02 eV
  | Change of total energy        :  0.2076E+01 eV

  End self-consistency iteration #     2       :  max(cpu_time)    wall_clock(cpu1)
  | Time for this iteration                    :        1.187 s           1.189 s
  | Charge density update                      :        0.389 s           0.389 s
  | Density mixing                             :        0.007 s           0.007 s
  | Hartree multipole update                   :        0.009 s           0.009 s
  | Hartree multipole summation                :        0.283 s           0.284 s
  | Integration                                :        0.497 s           0.497 s
  | Solution of K.-S. eqns.                    :        0.002 s           0.002 s
  | Total energy evaluation                    :        0.000 s           0.001 s

  Partial memory accounting:
  | Current value for overall tracked memory usage on task 0  :           0.166 MB
  | Peak value for overall tracked memory usage on task 0     :           0.695 MB after allocating gradient_basis_wave
  | Largest tracked array allocation on task 0 so far         :           0.397 MB  when allocating gradient_basis_wave
  Note:  These values currently only include a subset of arrays which are explicitly tracked.
  The "true" memory usage will be greater.
------------------------------------------------------------

------------------------------------------------------------
          Begin self-consistency iteration #    3

  Date     :  20200710, Time     :  144128.737
------------------------------------------------------------
  Evaluating new KS density.
  Integration grid: deviation in total charge (<rho> - N_e) =   4.973799E-14
  Pulay mixing of updated and previous charge densities.

  Evaluating partitioned Hartree potential by multipole expansion.
  | Analytical far-field extrapolation by fixed multipoles:
  | Hartree multipole sum: apparent total charge =  -0.425110E-03
  Summing up the Hartree potential.
  Time summed over all CPUs for potential: real work        0.282 s, elapsed        0.282 s
  | RMS charge density error from multipole expansion :   0.224086E-01

  Integrating Hamiltonian matrix: batch-based integration.
  Time summed over all CPUs for integration: real work        0.496 s, elapsed        0.496 s

  Updating Kohn-Sham eigenvalues and eigenvectors using ELSI and the ELPA eigensolver.
  Finished Cholesky decomposition
  | Time :     0.000 s
  Finished transformation to standard eigenproblem
  | Time :     0.000 s
  Starting LAPACK eigensolver
  Finished solving standard eigenproblem
  | Time :     0.002 s
  Finished back-transformation of eigenvectors
  | Time :     0.000 s

  Obtaining occupation numbers and chemical potential using ELSI.
  | Chemical potential (Fermi level):    -2.51270288eV
  Highest occupied state (VBM) at     -5.94460056 eV
  | Occupation number:      2.00000000

  Lowest unoccupied state (CBM) at    -0.71857382 eV
  | Occupation number:      0.00000000

  Overall HOMO-LUMO gap:      5.22602673 eV.

  Total energy components:
  | Sum of eigenvalues            :        -180.57809907 Ha       -4913.78008594 eV
  | XC energy correction          :         -42.64102130 Ha       -1160.32122615 eV
  | XC potential correction       :          54.82422222 Ha        1491.84299069 eV
  | Free-atom electrostatic energy:        -146.82315969 Ha       -3995.26145187 eV
  | Hartree energy correction     :          -8.29406473 Ha        -225.69298430 eV
  | vdW energy correction         :           0.00000000 Ha           0.00000000 eV
  | Entropy correction            :           0.00000000 Ha           0.00000000 eV
  | ---------------------------
  | Total energy                  :        -323.51212257 Ha       -8803.21275756 eV
  | Total energy, T -> 0          :        -323.51212257 Ha       -8803.21275756 eV  <-- do not rely on this value for anything but (periodic) metals
  | Electronic free energy        :        -323.51212257 Ha       -8803.21275756 eV

  Derived energy quantities:
  | Kinetic energy                :         323.20295834 Ha        8794.79997104 eV
  | Electrostatic energy          :        -604.07405961 Ha      -16437.69150245 eV
  | Energy correction for multipole
  | error in Hartree potential    :           0.03635624 Ha           0.98930374 eV
  | Sum of eigenvalues per atom                           :        -377.98308353 eV
  | Total energy (T->0) per atom                          :        -677.17021212 eV  <-- do not rely on this value for anything but (periodic) metals
  | Electronic free energy per atom                       :        -677.17021212 eV

  Self-consistency convergence accuracy:
  | Change of charge density      :  0.1987E+00
  | Change of sum of eigenvalues  :  0.3709E+02 eV
  | Change of total energy        :  0.3294E+00 eV

  End self-consistency iteration #     3       :  max(cpu_time)    wall_clock(cpu1)
  | Time for this iteration                    :        1.185 s           1.186 s
  | Charge density update                      :        0.387 s           0.387 s
  | Density mixing                             :        0.008 s           0.009 s
  | Hartree multipole update                   :        0.009 s           0.009 s
  | Hartree multipole summation                :        0.283 s           0.282 s
  | Integration                                :        0.496 s           0.496 s
  | Solution of K.-S. eqns.                    :        0.002 s           0.003 s
  | Total energy evaluation                    :        0.000 s           0.000 s

  Partial memory accounting:
  | Current value for overall tracked memory usage on task 0  :           0.166 MB
  | Peak value for overall tracked memory usage on task 0     :           0.695 MB after allocating gradient_basis_wave
  | Largest tracked array allocation on task 0 so far         :           0.397 MB  when allocating gradient_basis_wave
  Note:  These values currently only include a subset of arrays which are explicitly tracked.
  The "true" memory usage will be greater.
------------------------------------------------------------

------------------------------------------------------------
          Begin self-consistency iteration #    4

  Date     :  20200710, Time     :  144129.924
------------------------------------------------------------
  Evaluating new KS density.
  Integration grid: deviation in total charge (<rho> - N_e) =  -4.263256E-14
  Pulay mixing of updated and previous charge densities.

  Evaluating partitioned Hartree potential by multipole expansion.
  | Analytical far-field extrapolation by fixed multipoles:
  | Hartree multipole sum: apparent total charge =  -0.456356E-03
  Summing up the Hartree potential.
  Time summed over all CPUs for potential: real work        0.283 s, elapsed        0.283 s
  | RMS charge density error from multipole expansion :   0.258953E-01

  Integrating Hamiltonian matrix: batch-based integration.
  Time summed over all CPUs for integration: real work        0.495 s, elapsed        0.495 s

  Updating Kohn-Sham eigenvalues and eigenvectors using ELSI and the ELPA eigensolver.
  Finished Cholesky decomposition
  | Time :     0.000 s
  Finished transformation to standard eigenproblem
  | Time :     0.000 s
  Starting LAPACK eigensolver
  Finished solving standard eigenproblem
  | Time :     0.002 s
  Finished back-transformation of eigenvectors
  | Time :     0.000 s

  Obtaining occupation numbers and chemical potential using ELSI.
  | Chemical potential (Fermi level):    -2.40134878eV
  Highest occupied state (VBM) at     -5.65435774 eV
  | Occupation number:      2.00000000

  Lowest unoccupied state (CBM) at    -0.65197866 eV
  | Occupation number:      0.00000000

  Overall HOMO-LUMO gap:      5.00237908 eV.

  Total energy components:
  | Sum of eigenvalues            :        -180.49801548 Ha       -4911.60090078 eV
  | XC energy correction          :         -42.67337870 Ha       -1161.20171572 eV
  | XC potential correction       :          54.86464912 Ha        1492.94306262 eV
  | Free-atom electrostatic energy:        -146.82315969 Ha       -3995.26145187 eV
  | Hartree energy correction     :          -8.38127803 Ha        -228.06617900 eV
  | vdW energy correction         :           0.00000000 Ha           0.00000000 eV
  | Entropy correction            :           0.00000000 Ha           0.00000000 eV
  | ---------------------------
  | Total energy                  :        -323.51118278 Ha       -8803.18718475 eV
  | Total energy, T -> 0          :        -323.51118278 Ha       -8803.18718475 eV  <-- do not rely on this value for anything but (periodic) metals
  | Electronic free energy        :        -323.51118278 Ha       -8803.18718475 eV

  Derived energy quantities:
  | Kinetic energy                :         322.78434189 Ha        8783.40883782 eV
  | Electrostatic energy          :        -603.62214598 Ha      -16425.39430685 eV
  | Energy correction for multipole
  | error in Hartree potential    :           0.04013401 Ha           1.09210185 eV
  | Sum of eigenvalues per atom                           :        -377.81545391 eV
  | Total energy (T->0) per atom                          :        -677.16824498 eV  <-- do not rely on this value for anything but (periodic) metals
  | Electronic free energy per atom                       :        -677.16824498 eV

  Self-consistency convergence accuracy:
  | Change of charge density      :  0.6397E-01
  | Change of sum of eigenvalues  :  0.2179E+01 eV
  | Change of total energy        :  0.2557E-01 eV

  End self-consistency iteration #     4       :  max(cpu_time)    wall_clock(cpu1)
  | Time for this iteration                    :        1.186 s           1.186 s
  | Charge density update                      :        0.387 s           0.387 s
  | Density mixing                             :        0.010 s           0.009 s
  | Hartree multipole update                   :        0.009 s           0.008 s
  | Hartree multipole summation                :        0.283 s           0.283 s
  | Integration                                :        0.495 s           0.496 s
  | Solution of K.-S. eqns.                    :        0.002 s           0.002 s
  | Total energy evaluation                    :        0.000 s           0.000 s

  Partial memory accounting:
  | Current value for overall tracked memory usage on task 0  :           0.166 MB
  | Peak value for overall tracked memory usage on task 0     :           0.696 MB after allocating gradient_basis_wave
  | Largest tracked array allocation on task 0 so far         :           0.397 MB  when allocating gradient_basis_wave
  Note:  These values currently only include a subset of arrays which are explicitly tracked.
  The "true" memory usage will be greater.
------------------------------------------------------------

------------------------------------------------------------
          Begin self-consistency iteration #    5

  Date     :  20200710, Time     :  144131.111
------------------------------------------------------------
  Evaluating new KS density.
  Integration grid: deviation in total charge (<rho> - N_e) =   2.842171E-14
  Pulay mixing of updated and previous charge densities.

  Evaluating partitioned Hartree potential by multipole expansion.
  | Analytical far-field extrapolation by fixed multipoles:
  | Hartree multipole sum: apparent total charge =  -0.452035E-03
  Summing up the Hartree potential.
  Time summed over all CPUs for potential: real work        0.282 s, elapsed        0.282 s
  | RMS charge density error from multipole expansion :   0.256337E-01

  Integrating Hamiltonian matrix: batch-based integration.
  Time summed over all CPUs for integration: real work        0.495 s, elapsed        0.495 s

  Updating Kohn-Sham eigenvalues and eigenvectors using ELSI and the ELPA eigensolver.
  Finished Cholesky decomposition
  | Time :     0.000 s
  Finished transformation to standard eigenproblem
  | Time :     0.000 s
  Starting LAPACK eigensolver
  Finished solving standard eigenproblem
  | Time :     0.002 s
  Finished back-transformation of eigenvectors
  | Time :     0.000 s

  Obtaining occupation numbers and chemical potential using ELSI.
  | Chemical potential (Fermi level):    -2.44503992eV
  Highest occupied state (VBM) at     -5.77358781 eV
  | Occupation number:      2.00000000

  Lowest unoccupied state (CBM) at    -0.70787457 eV
  | Occupation number:      0.00000000

  Overall HOMO-LUMO gap:      5.06571324 eV.

  Total energy components:
  | Sum of eigenvalues            :        -180.62210039 Ha       -4914.97742286 eV
  | XC energy correction          :         -42.65685798 Ha       -1160.75216409 eV
  | XC potential correction       :          54.84325619 Ha        1492.36093150 eV
  | Free-atom electrostatic energy:        -146.82315969 Ha       -3995.26145187 eV
  | Hartree energy correction     :          -8.25202416 Ha        -224.54900235 eV
  | vdW energy correction         :           0.00000000 Ha           0.00000000 eV
  | Entropy correction            :           0.00000000 Ha           0.00000000 eV
  | ---------------------------
  | Total energy                  :        -323.51088603 Ha       -8803.17910967 eV
  | Total energy, T -> 0          :        -323.51088603 Ha       -8803.17910967 eV  <-- do not rely on this value for anything but (periodic) metals
  | Electronic free energy        :        -323.51088603 Ha       -8803.17910967 eV

  Derived energy quantities:
  | Kinetic energy                :         322.72315985 Ha        8781.74398966 eV
  | Electrostatic energy          :        -603.57718790 Ha      -16424.17093524 eV
  | Energy correction for multipole
  | error in Hartree potential    :           0.03958607 Ha           1.07719167 eV
  | Sum of eigenvalues per atom                           :        -378.07518637 eV
  | Total energy (T->0) per atom                          :        -677.16762382 eV  <-- do not rely on this value for anything but (periodic) metals
  | Electronic free energy per atom                       :        -677.16762382 eV

  Self-consistency convergence accuracy:
  | Change of charge density      :  0.2257E-01
  | Change of sum of eigenvalues  : -0.3377E+01 eV
  | Change of total energy        :  0.8075E-02 eV

  End self-consistency iteration #     5       :  max(cpu_time)    wall_clock(cpu1)
  | Time for this iteration                    :        1.186 s           1.187 s
  | Charge density update                      :        0.387 s           0.387 s
  | Density mixing                             :        0.011 s           0.011 s
  | Hartree multipole update                   :        0.009 s           0.009 s
  | Hartree multipole summation                :        0.282 s           0.282 s
  | Integration                                :        0.495 s           0.495 s
  | Solution of K.-S. eqns.                    :        0.002 s           0.003 s
  | Total energy evaluation                    :        0.000 s           0.000 s

  Partial memory accounting:
  | Current value for overall tracked memory usage on task 0  :           0.166 MB
  | Peak value for overall tracked memory usage on task 0     :           0.696 MB after allocating gradient_basis_wave
  | Largest tracked array allocation on task 0 so far         :           0.397 MB  when allocating gradient_basis_wave
  Note:  These values currently only include a subset of arrays which are explicitly tracked.
  The "true" memory usage will be greater.
------------------------------------------------------------

------------------------------------------------------------
          Begin self-consistency iteration #    6

  Date     :  20200710, Time     :  144132.300
------------------------------------------------------------
  Evaluating new KS density.
  Integration grid: deviation in total charge (<rho> - N_e) =   0.000000E+00
  Pulay mixing of updated and previous charge densities.

  Evaluating partitioned Hartree potential by multipole expansion.
  | Analytical far-field extrapolation by fixed multipoles:
  | Hartree multipole sum: apparent total charge =  -0.453240E-03
  Summing up the Hartree potential.
  Time summed over all CPUs for potential: real work        0.283 s, elapsed        0.283 s
  | RMS charge density error from multipole expansion :   0.258811E-01

  Integrating Hamiltonian matrix: batch-based integration.
  Time summed over all CPUs for integration: real work        0.495 s, elapsed        0.495 s

  Updating Kohn-Sham eigenvalues and eigenvectors using ELSI and the ELPA eigensolver.
  Finished Cholesky decomposition
  | Time :     0.000 s
  Finished transformation to standard eigenproblem
  | Time :     0.000 s
  Starting LAPACK eigensolver
  Finished solving standard eigenproblem
  | Time :     0.001 s
  Finished back-transformation of eigenvectors
  | Time :     0.000 s

  Obtaining occupation numbers and chemical potential using ELSI.
  | Chemical potential (Fermi level):    -2.46442738eV
  Highest occupied state (VBM) at     -5.81585976 eV
  | Occupation number:      2.00000000

  Lowest unoccupied state (CBM) at    -0.74908808 eV
  | Occupation number:      0.00000000

  Overall HOMO-LUMO gap:      5.06677168 eV.

  Total energy components:
  | Sum of eigenvalues            :        -180.69078123 Ha       -4916.84632373 eV
  | XC energy correction          :         -42.64754330 Ha       -1160.49869862 eV
  | XC potential correction       :          54.83117102 Ha        1492.03207733 eV
  | Free-atom electrostatic energy:        -146.82315969 Ha       -3995.26145187 eV
  | Hartree energy correction     :          -8.18048831 Ha        -222.60241270 eV
  | vdW energy correction         :           0.00000000 Ha           0.00000000 eV
  | Entropy correction            :           0.00000000 Ha           0.00000000 eV
  | ---------------------------
  | Total energy                  :        -323.51080150 Ha       -8803.17680959 eV
  | Total energy, T -> 0          :        -323.51080150 Ha       -8803.17680959 eV  <-- do not rely on this value for anything but (periodic) metals
  | Electronic free energy        :        -323.51080150 Ha       -8803.17680959 eV

  Derived energy quantities:
  | Kinetic energy                :         322.62287895 Ha        8779.01520752 eV
  | Electrostatic energy          :        -603.48613715 Ha      -16421.69331849 eV
  | Energy correction for multipole
  | error in Hartree potential    :           0.03954019 Ha           1.07594341 eV
  | Sum of eigenvalues per atom                           :        -378.21894798 eV
  | Total energy (T->0) per atom                          :        -677.16744689 eV  <-- do not rely on this value for anything but (periodic) metals
  | Electronic free energy per atom                       :        -677.16744689 eV

  Self-consistency convergence accuracy:
  | Change of charge density      :  0.1115E-01
  | Change of sum of eigenvalues  : -0.1869E+01 eV
  | Change of total energy        :  0.2300E-02 eV

  End self-consistency iteration #     6       :  max(cpu_time)    wall_clock(cpu1)
  | Time for this iteration                    :        1.188 s           1.188 s
  | Charge density update                      :        0.387 s           0.387 s
  | Density mixing                             :        0.012 s           0.012 s
  | Hartree multipole update                   :        0.009 s           0.009 s
  | Hartree multipole summation                :        0.283 s           0.283 s
  | Integration                                :        0.495 s           0.495 s
  | Solution of K.-S. eqns.                    :        0.002 s           0.002 s
  | Total energy evaluation                    :        0.000 s           0.000 s

  Partial memory accounting:
  | Current value for overall tracked memory usage on task 0  :           0.166 MB
  | Peak value for overall tracked memory usage on task 0     :           0.696 MB after allocating gradient_basis_wave
  | Largest tracked array allocation on task 0 so far         :           0.397 MB  when allocating gradient_basis_wave
  Note:  These values currently only include a subset of arrays which are explicitly tracked.
  The "true" memory usage will be greater.
------------------------------------------------------------

------------------------------------------------------------
          Begin self-consistency iteration #    7

  Date     :  20200710, Time     :  144133.490
------------------------------------------------------------
  Evaluating new KS density.
  Integration grid: deviation in total charge (<rho> - N_e) =  -1.421085E-14
  Pulay mixing of updated and previous charge densities.

  Evaluating partitioned Hartree potential by multipole expansion.
  | Analytical far-field extrapolation by fixed multipoles:
  | Hartree multipole sum: apparent total charge =  -0.455025E-03
  Summing up the Hartree potential.
  Time summed over all CPUs for potential: real work        0.282 s, elapsed        0.282 s
  | RMS charge density error from multipole expansion :   0.260452E-01

  Integrating Hamiltonian matrix: batch-based integration.
  Time summed over all CPUs for integration: real work        0.495 s, elapsed        0.495 s

  Updating Kohn-Sham eigenvalues and eigenvectors using ELSI and the ELPA eigensolver.
  Finished Cholesky decomposition
  | Time :     0.000 s
  Finished transformation to standard eigenproblem
  | Time :     0.000 s
  Starting LAPACK eigensolver
  Finished solving standard eigenproblem
  | Time :     0.001 s
  Finished back-transformation of eigenvectors
  | Time :     0.000 s

[...]
  |   Hirshfeld dipole moment :      0.06551264
  |   Hirshfeld second moments:     -0.00449096      -0.02445264      -0.01480609
  |                                 -0.02445264      -0.03051180       0.00542256
  |                                 -0.01480609       0.00542256      -0.02615658
  ----------------------------------------------------------------------
  | Atom    12: O
  |   Hirshfeld charge        :     -0.15409158
  |   Free atom volume        :     23.61338643
  |   Hirshfeld volume        :     21.29665983
  |   Hirshfeld dipole vector :      0.01735450       0.03768563      -0.01147001
  |   Hirshfeld dipole moment :      0.04304586
  |   Hirshfeld second moments:      0.04963913      -0.01131289       0.01117426
  |                                 -0.01131289       0.02406611       0.01158205
  |                                  0.01117426       0.01158205       0.07168831
  ----------------------------------------------------------------------
  | Atom    13: H
  |   Hirshfeld charge        :      0.11374470
  |   Free atom volume        :      9.95071624
  |   Hirshfeld volume        :      7.27555708
  |   Hirshfeld dipole vector :     -0.01942773      -0.00031755      -0.05938983
  |   Hirshfeld dipole moment :      0.06248751
  |   Hirshfeld second moments:      0.10105709      -0.01147442       0.00897746
  |                                 -0.01147442       0.06505880       0.03376672
  |                                  0.00897746       0.03376672       0.06720374
  ----------------------------------------------------------------------


  Total energy components:
  | Sum of eigenvalues            :        -180.67655454 Ha       -4916.45919572 eV
  | XC energy correction          :         -42.64613330 Ha       -1160.46033072 eV
  | XC potential correction       :          54.82942000 Ha        1491.98442967 eV
  | Free-atom electrostatic energy:        -146.82315969 Ha       -3995.26145187 eV
  | Hartree energy correction     :          -8.19435611 Ha        -222.97977494 eV
  | vdW energy correction         :          -0.00347734 Ha          -0.09462311 eV
  | Entropy correction            :           0.00000000 Ha           0.00000000 eV
  | ---------------------------
  | Total energy                  :        -323.51426098 Ha       -8803.27094669 eV
  | Total energy, T -> 0          :        -323.51426098 Ha       -8803.27094669 eV  <-- do not rely on this value for anything but (periodic) metals
  | Electronic free energy        :        -323.51426098 Ha       -8803.27094669 eV

  Derived energy quantities:
  | Kinetic energy                :         322.58658869 Ha        8778.02769931 eV
  | Electrostatic energy          :        -603.45123903 Ha      -16420.74369217 eV
  | Energy correction for multipole
  | error in Hartree potential    :           0.03958872 Ha           1.07726399 eV
  | Sum of eigenvalues per atom                           :        -378.18916890 eV
  | Total energy (T->0) per atom                          :        -677.17468821 eV  <-- do not rely on this value for anything but (periodic) metals
  | Electronic free energy per atom                       :        -677.17468821 eV

  atomic forces [eV/Ang]:
  -----------------------
  atom #    1
   Hellmann-Feynman              :  0.746109E+00  0.214123E+00  0.175909E+01
   Ionic forces                  :  0.000000E+00  0.000000E+00  0.000000E+00
   Multipole                     :  0.168086E-01  0.422472E+00 -0.277648E+00
   Pulay + GGA                   : -0.924050E+00  0.120421E+00 -0.157907E+01
   Van der Waals                 :  0.204367E-02  0.699135E-03 -0.109519E-02
   ----------------------------------------------------------------
   Total forces(   1)            : -0.159088E+00  0.757715E+00 -0.987204E-01
  atom #    2
   Hellmann-Feynman              :  0.217578E+00 -0.225820E-01 -0.784988E-01
   Ionic forces                  :  0.000000E+00  0.000000E+00  0.000000E+00
   Multipole                     :  0.187200E+00  0.368442E-01  0.189118E-01
   Pulay + GGA                   : -0.135141E+00  0.553905E-03  0.636907E-01
   Van der Waals                 :  0.400993E-02 -0.407699E-02 -0.680291E-02
   ----------------------------------------------------------------
   Total forces(   2)            :  0.273647E+00  0.107391E-01 -0.269924E-02
  atom #    3
   Hellmann-Feynman              : -0.368955E+01 -0.100447E+02 -0.483024E+00
   Ionic forces                  :  0.000000E+00  0.000000E+00  0.000000E+00
   Multipole                     : -0.126309E+00  0.109295E+00 -0.867795E+00
   Pulay + GGA                   :  0.389913E+01  0.930132E+01  0.200580E+01
   Van der Waals                 :  0.357420E-02 -0.521872E-02 -0.908127E-02
   ----------------------------------------------------------------
   Total forces(   3)            :  0.868374E-01 -0.639266E+00  0.645898E+00
  atom #    4
   Hellmann-Feynman              :  0.432526E-01  0.195116E+00 -0.193604E+00
   Ionic forces                  :  0.000000E+00  0.000000E+00  0.000000E+00
   Multipole                     : -0.856874E-01  0.507161E-01 -0.797664E-01
   Pulay + GGA                   :  0.126734E+00 -0.198371E+00  0.259629E-01
   Van der Waals                 : -0.959970E-03 -0.330057E-02 -0.745078E-02
   ----------------------------------------------------------------
   Total forces(   4)            :  0.833397E-01  0.441596E-01 -0.254858E+00
  atom #    5
   Hellmann-Feynman              : -0.379695E-01  0.186681E+00 -0.260874E+00
   Ionic forces                  :  0.000000E+00  0.000000E+00  0.000000E+00
   Multipole                     :  0.415389E-01  0.550686E-02 -0.126133E+00
   Pulay + GGA                   : -0.172797E+00 -0.122936E+00  0.128983E+00
   Van der Waals                 : -0.159475E-02  0.120466E-02  0.383486E-02
   ----------------------------------------------------------------
   Total forces(   5)            : -0.170822E+00  0.704561E-01 -0.254189E+00
  atom #    6
   Hellmann-Feynman              :  0.230796E+00 -0.461771E+00  0.279844E+00
   Ionic forces                  :  0.000000E+00  0.000000E+00  0.000000E+00
   Multipole                     : -0.731646E-01  0.592190E+00  0.247210E+00
   Pulay + GGA                   :  0.151129E+00 -0.544361E+00 -0.335442E+00
   Van der Waals                 : -0.310008E-02  0.519159E-02 -0.123415E-02
   ----------------------------------------------------------------
   Total forces(   6)            :  0.305660E+00 -0.408751E+00  0.190378E+00
  atom #    7
   Hellmann-Feynman              : -0.252496E+00 -0.725123E-01 -0.423517E-01
   Ionic forces                  :  0.000000E+00  0.000000E+00  0.000000E+00
   Multipole                     : -0.120220E+00  0.498425E-01  0.276961E-01
   Pulay + GGA                   :  0.111404E+00  0.937162E-02  0.535300E-01
   Van der Waals                 : -0.229390E-02  0.243604E-02  0.766279E-02
   ----------------------------------------------------------------
   Total forces(   7)            : -0.263605E+00 -0.108621E-01  0.465372E-01
  atom #    8
   Hellmann-Feynman              :  0.105140E-01 -0.732891E-02  0.185881E+00
   Ionic forces                  :  0.000000E+00  0.000000E+00  0.000000E+00
   Multipole                     :  0.169217E-01  0.639230E-01  0.121812E+00
   Pulay + GGA                   : -0.531069E-01 -0.558154E-01 -0.117469E+00
   Van der Waals                 : -0.303133E-02  0.113557E-01  0.572613E-03
   ----------------------------------------------------------------
   Total forces(   8)            : -0.287025E-01  0.121344E-01  0.190797E+00
  atom #    9
   Hellmann-Feynman              :  0.121724E+00  0.656601E-01 -0.168161E+00
   Ionic forces                  :  0.000000E+00  0.000000E+00  0.000000E+00
   Multipole                     :  0.160981E-01  0.126873E+00 -0.108148E-01
   Pulay + GGA                   : -0.318608E-01 -0.718666E-01  0.603575E-01
   Van der Waals                 :  0.642349E-03  0.602173E-02  0.666307E-02
   ----------------------------------------------------------------
   Total forces(   9)            :  0.106604E+00  0.126689E+00 -0.111955E+00
  atom #   10
   Hellmann-Feynman              :  0.186834E+01  0.297223E+01  0.150312E+01
   Ionic forces                  :  0.000000E+00  0.000000E+00  0.000000E+00
   Multipole                     :  0.402564E-01 -0.847185E-01  0.243903E+00
   Pulay + GGA                   : -0.126732E+01 -0.241517E+01 -0.120313E+00
   Van der Waals                 :  0.356717E-02 -0.116458E-01 -0.272247E-02
   ----------------------------------------------------------------
   Total forces(  10)            :  0.644845E+00  0.460697E+00  0.162399E+01
  atom #   11
   Hellmann-Feynman              :  0.418839E+01 -0.230466E+01  0.143513E+02
   Ionic forces                  :  0.000000E+00  0.000000E+00  0.000000E+00
   Multipole                     :  0.171863E+00 -0.624723E+00  0.950807E+00
   Pulay + GGA                   : -0.351923E+01  0.367888E+01 -0.140593E+02
   Van der Waals                 : -0.122897E-02 -0.121153E-01  0.808383E-02
   ----------------------------------------------------------------
   Total forces(  11)            :  0.839792E+00  0.737380E+00  0.125084E+01
  atom #   12
   Hellmann-Feynman              : -0.651157E+01 -0.123814E+02  0.146707E+01
   Ionic forces                  :  0.000000E+00  0.000000E+00  0.000000E+00
   Multipole                     : -0.810462E+00 -0.146172E+01 -0.635994E-02
   Pulay + GGA                   :  0.619423E+01  0.126916E+02 -0.294979E+01
   Van der Waals                 :  0.125092E-02  0.104645E-01  0.108728E-02
   ----------------------------------------------------------------
   Total forces(  12)            : -0.112656E+01 -0.114105E+01 -0.148798E+01
  atom #   13
   Hellmann-Feynman              : -0.627094E+00  0.809235E-01 -0.202803E+01
   Ionic forces                  :  0.000000E+00  0.000000E+00  0.000000E+00
   Multipole                     :  0.983076E-02  0.730416E-01 -0.776811E-01
   Pulay + GGA                   :  0.279865E-01 -0.170786E+00  0.358690E+00
   Van der Waals                 : -0.287922E-02 -0.101597E-02  0.482338E-03
   ----------------------------------------------------------------
   Total forces(  13)            : -0.592156E+00 -0.178372E-01 -0.174654E+01

  Timings for VdW correction (Tkatchenko-Scheffler 2009 or later):
  | CPU time:        0.090 s, Wall clock time:        0.091 s.
  Removing unitary transformations (pure translations, rotations) from forces on atoms.
  Atomic forces before filtering:
  | Net force on center of mass :  -0.203781E-03  0.220811E-02 -0.851118E-02 eV/A
  | Net torque on center of mass:   0.861642E-02 -0.176803E-02 -0.145217E-02 eV
  Atomic forces after filtering:
  | Net force on center of mass :   0.000000E+00  0.195132E-15 -0.356812E-15 eV/A
  | Net torque on center of mass:  -0.413037E-16 -0.566451E-15  0.944085E-15 eV

  Energy and forces in a compact form:
  | Total energy uncorrected      :         -0.880327094669239E+04 eV
  | Total energy corrected        :         -0.880327094669239E+04 eV  <-- do not rely on this value for anything but (periodic) metals
  | Electronic free energy        :         -0.880327094669239E+04 eV
  Total atomic forces (unitary forces cleaned) [eV/Ang]:
  |   1         -0.159073953458974E+00          0.757557705013768E+00         -0.980886254923983E-01
  |   2          0.273661893912028E+00          0.106351095692143E-01         -0.213964985358519E-02
  |   3          0.867586279600243E-01         -0.639755582940194E+00          0.646561109909558E+00
  |   4          0.832208089360609E-01          0.436129848675209E-01         -0.254298891176966E+00
  |   5         -0.170952227829370E+00          0.698701508001220E-01         -0.253628192484163E+00
  |   6          0.305661596992090E+00         -0.408772101611939E+00          0.190765643507838E+00
  |   7         -0.263603751943276E+00         -0.109329901225199E-01          0.469910433886191E-01
  |   8         -0.286338020187220E-01          0.123567360677208E-01          0.191157910160021E+00
  |   9          0.106528387190094E+00          0.126574213073019E+00         -0.111788186057783E+00
  |  10          0.644970779878112E+00          0.460684229453383E+00          0.162492640783132E+01
  |  11          0.840007168984591E+00          0.737631346769756E+00          0.125182188781303E+01
  |  12         -0.112643304305543E+01         -0.114124183795025E+01         -0.148681007188993E+01
  |  13         -0.592112485547232E+00         -0.182199629895969E-01         -0.174547038565556E+01

  ------------------------------------ 
  Start decomposition of the XC Energy 
  ------------------------------------ 
  X and C from original XC functional choice 
  Hartree-Fock Energy :          0.000000000 Ha              0.000000000 eV
  X Energy            :        -41.042937876 Ha          -1116.835163544 eV
  C Energy            :         -1.603195426 Ha            -43.625167175 eV
  Total XC Energy     :        -42.646133302 Ha          -1160.460330718 eV
  ------------------------------------ 
  LDA X and C from self-consistent density 
  X Energy LDA        :        -37.265379855 Ha          -1014.042579786 eV
  C Energy LDA        :         -3.139415589 Ha            -85.427844708 eV
  ------------------------------------ 
  End decomposition of the XC Energy 
  ------------------------------------ 

------------------------------------------------------------

------------------------------------------------------------------------------
  Final output of selected total energy values:

  The following output summarizes some interesting total energy values
  at the end of a run (AFTER all relaxation, molecular dynamics, etc.).

  | Total energy of the DFT / Hartree-Fock s.c.f. calculation      :          -8803.270946692 eV
  | Final zero-broadening corrected energy (caution - metals only) :          -8803.270946692 eV
  | For reference only, the value of 1 Hartree used in FHI-aims is :             27.211384500 eV

  Before relying on these values, please be sure to understand exactly which
  total energy value is referred to by a given number. Different objects may
  all carry the same name 'total energy'. Definitions:

  Total energy of the DFT / Hartree-Fock s.c.f. calculation:
  | Note that this energy does not include ANY quantities calculated after the
  | s.c.f. cycle, in particular not ANY RPA, MP2, etc. many-body perturbation terms.

  Final zero-broadening corrected energy:
  | For metallic systems only, a broadening of the occupation numbers at the Fermi
  | level can be extrapolated back to zero broadening by an electron-gas inspired
  | formula. For all systems that are not real metals, this value can be
  | meaningless and should be avoided.

------------------------------------------------------------------------------
  Methods described in the following list of references were used in this FHI-aims run.
  If you publish the results, please make sure to cite these reference if they apply.
  FHI-aims is an academic code, and for our developers (often, Ph.D. students
  and postdocs), scientific credit in the community is essential.
  Thank you for helping us!

  For any use of FHI-aims, please cite:

    Volker Blum, Ralf Gehrke, Felix Hanke, Paula Havu, Ville Havu,
    Xinguo Ren, Karsten Reuter, and Matthias Scheffler
    'Ab initio molecular simulations with numeric atom-centered orbitals'
    Computer Physics Communications 180, 2175-2196 (2009)
    http://dx.doi.org/10.1016/j.cpc.2009.06.022


  The scalable eigensolver library ELPA was used in your run.
  ELPA is essential especially for large systems on hundreds or thousands of CPUs.
  For ELPA, please cite:

    Andreas Marek, Volker Blum, Rainer Johanni, Ville Havu, Bruno Lang,
    Thomas Auckenthaler, Alexander Heinecke, Hans-Joachim Bungartz, and Hermann Lederer,
    'The ELPA Library - Scalable Parallel Eigenvalue Solutions
    for Electronic Structure Theory and Computational Science'
    The Journal of Physics: Condensed Matter 26, 213201 (2014).
    http://dx.doi.org/10.1088/0953-8984/26/21/213201


  The ELSI infrastructure was used in your run to solve the Kohn-Sham electronic structure.
  Please check out http://elsi-interchange.org to learn more.
  If scalability is important for your project, please acknowledge ELSI by citing:

    V. W-z. Yu, F. Corsetti, A. Garcia, W. P. Huhn, M. Jacquelin, W. Jia,
    B. Lange, L. Lin, J. Lu, W. Mi, A. Seifitokaldani, A. Vazquez-Mayagoitia,
    C. Yang, H. Yang, and V. Blum
    'ELSI: A unified software interface for Kohn-Sham electronic structure solvers'
    Computer Physics Communications 222, 267-285 (2018).
    http://dx.doi.org/10.1016/j.cpc.2017.09.007


  For the real-space grid partitioning and parallelization used in this calculation, please cite:

    Ville Havu, Volker Blum, Paula Havu, and Matthias Scheffler,
    'Efficient O(N) integration for all-electron electronic structure calculation'
    'using numerically tabulated basis functions'
    Journal of Computational Physics 228, 8367-8379 (2009).
    http://dx.doi.org/10.1016/j.jcp.2009.08.008

  Of course, there are many other important community references, e.g., those cited in the
  above references. Our list is limited to references that describe implementations in the
  FHI-aims code. The reason is purely practical (length of this list) - please credit others as well.

------------------------------------------------------------
          Leaving FHI-aims.
          Date     :  20200710, Time     :  144147.795

          Computational steps:
          | Number of self-consistency cycles          :           16
          | Number of SCF (re)initializations          :            1

          Detailed time accounting                     :  max(cpu_time)    wall_clock(cpu1)
          | Total time                                 :       22.713 s          22.773 s
          | Preparation time                           :        0.148 s           0.148 s
          | Boundary condition initalization           :        0.000 s           0.000 s
          | Grid partitioning                          :        0.112 s           0.112 s
          | Preloading free-atom quantities on grid    :        0.002 s           0.003 s
          | Free-atom superposition energy             :        0.085 s           0.085 s
          | Total time for integrations                :        8.642 s           8.652 s
          | Total time for solution of K.-S. equations :        0.037 s           0.043 s
          | Total time for density & force components  :        7.155 s           7.160 s
          | Total time for mixing                      :        0.216 s           0.219 s
          | Total time for Hartree multipole update    :        0.140 s           0.141 s
          | Total time for Hartree multipole sum       :        5.772 s           5.787 s
          | Total time for total energy evaluation     :        0.003 s           0.003 s
          | Total time for vdW correction              :        0.090 s           0.091 s

          Partial memory accounting:
          | Residual value for overall tracked memory usage across tasks :           0.000 MB (should be 0.000 MB)
          | Peak values for overall tracked memory usage (after allocating hessian_basis_wave):
          |   Minimum:        1.622 MB (on task 1)
          |   Maximum:        1.622 MB (on task 1)
          |   Average:        1.622 MB
          | Largest tracked array allocation (hessian_basis_wave):
          |   Minimum:        0.794 MB (on task 1)
          |   Maximum:        0.794 MB (on task 1)
          |   Average:        0.794 MB
          Note:  These values currently only include a subset of arrays which are explicitly tracked.
          The "true" memory usage will be greater.

          Have a nice day.
------------------------------------------------------------
