  MPI-parallelism will be employed.
------------------------------------------------------------
          Invoking FHI-aims ...
          Version 171221_1
          Compiled on 2019/09/09 at 14:39:39 on host puhti-login2.bullx.

          When using FHI-aims, please cite the following reference:

          Volker Blum, Ralf Gehrke, Felix Hanke, Paula Havu,
          Ville Havu, Xinguo Ren, Karsten Reuter, and Matthias Scheffler,
          'Ab Initio Molecular Simulations with Numeric Atom-Centered Orbitals',
          Computer Physics Communications 180, 2175-2196 (2009)

          For any questions about FHI-aims, please visit the aimsclub website
          with its forums and wiki. Contributions to both the forums and the
          wiki are warmly encouraged - they are for you, and everyone is welcome there.

------------------------------------------------------------



  Date     :  20200815, Time     :  001640.307
  Time zero on CPU 1             :   0.105980000000000E-01  s.
  Internal wall clock time zero  :           366682600.307  s.

  FHI-aims created a unique identifier for this run for later identification
  aims_uuid : 41823DC2-152F-4710-A498-42B8B7A4BD8B

  Using        1 parallel tasks.
  Task        0 on host r18c31.bullx reporting.

  Performing system and environment tests:
  | Environment variable OMP_NUM_THREADS correctly set to 1.
  | Stacksize not measured: no C compiler
  | Checking for scalapack...
  | Testing pdtran()...
  | All pdtran() tests passed.

  Obtaining array dimensions for all initial allocations:
  
  -----------------------------------------------------------------------
  Parsing control.in (first pass over file, find array dimensions only).
  The contents of control.in will be repeated verbatim below
  unless switched off by setting 'verbatim_writeout .false.' .
  in the first line of control.in .
  -----------------------------------------------------------------------
  
  #########################################################################################
  #
  #  Volker Blum, FHI 2009 : Test run input file control.in for simple H2O
  #
  #########################################################################################
  #
  #  Physical model
  #
    xc                 pbe
    vdw_correction_hirshfeld
    spin               none
    relativistic       none
    charge             0.
  #
  #  SCF convergence
  #
    occupation_type    gaussian 0.01
    mixer              pulay
      n_max_pulay        10
      charge_mix_param   0.2
    sc_accuracy_rho    1E-5
    sc_accuracy_eev    1E-3
    sc_accuracy_etot   1E-6
    sc_accuracy_forces 1E-4
    sc_iter_limit      100
  #
  #  Relaxation
  #
  #  relax_geometry   bfgs 1.e-3
  #
  ################################################################################
  #
  #  FHI-aims code project
  #  VB, Fritz-Haber Institut, 2009
  #
  #  Suggested "light" defaults for H atom (to be pasted into control.in file)
  #  Be sure to double-check any results obtained with these settings for post-processing,
  #  e.g., with the "tight" defaults and larger basis sets.
  #
  ################################################################################
    species        H
  #     global species definitions
      nucleus             1
      mass                1.00794
  #
      l_hartree           4
  #
      cut_pot             3.5  1.5  1.0
      basis_dep_cutoff    1e-4
  #
      radial_base         24 5.0
      radial_multiplier   1
      angular_grids       specified
        division   0.2421   50
        division   0.3822  110
        division   0.4799  194
        division   0.5341  302
  #      division   0.5626  434
  #      division   0.5922  590
  #      division   0.6542  770
  #      division   0.6868 1202
  #      outer_grid  770
        outer_grid  302
  ################################################################################
  #
  #  Definition of "minimal" basis
  #
  ################################################################################
  #     valence basis states
      valence      1  s   1.
  #     ion occupancy
      ion_occ      1  s   0.5
  ################################################################################
  #
  #  Suggested additional basis functions. For production calculations,
  #  uncomment them one after another (the most important basis functions are
  #  listed first).
  #
  #  Basis constructed for dimers: 0.5 A, 0.7 A, 1.0 A, 1.5 A, 2.5 A
  #
  ################################################################################
  #  "First tier" - improvements: -1014.90 meV to -62.69 meV
       hydro 2 s 2.1
       hydro 2 p 3.5
  #  "Second tier" - improvements: -12.89 meV to -1.83 meV
  #     hydro 1 s 0.85
  #     hydro 2 p 3.7
  #     hydro 2 s 1.2
  #     hydro 3 d 7
  #  "Third tier" - improvements: -0.25 meV to -0.12 meV
  #     hydro 4 f 11.2
  #     hydro 3 p 4.8
  #     hydro 4 d 9
  #     hydro 3 s 3.2
  ################################################################################
  #
  #  FHI-aims code project
  #  VB, Fritz-Haber Institut, 2009
  #
  #  Suggested "light" defaults for C atom (to be pasted into control.in file)
  #  Be sure to double-check any results obtained with these settings for post-processing,
  #  e.g., with the "tight" defaults and larger basis sets.
  #
  ################################################################################
    species        C
  #     global species definitions
      nucleus             6
      mass                12.0107
  #
      l_hartree           4
  #
      cut_pot             3.5  1.5  1.0
      basis_dep_cutoff    1e-4
  #
      radial_base         34 5.0
      radial_multiplier   1
      angular_grids specified
        division   0.3326   50
        division   0.5710  110
        division   0.7727  194
        division   0.8772  302
  #      division   0.9334  434
  #      division   0.9625  590
  #      division   0.9924  770
  #      division   1.0230  974
  #      division   1.4589 1202
  #     outer_grid  974
       outer_grid 302
  ################################################################################
  #
  #  Definition of "minimal" basis
  #
  ################################################################################
  #     valence basis states
      valence      2  s   2.
      valence      2  p   2.
  #     ion occupancy
      ion_occ      2  s   1.
      ion_occ      2  p   1.
  ################################################################################
  #
  #  Suggested additional basis functions. For production calculations,
  #  uncomment them one after another (the most important basis functions are
  #  listed first).
  #
  #  Constructed for dimers: 1.0 A, 1.25 A, 1.5 A, 2.0 A, 3.0 A
  #
  ################################################################################
  #  "First tier" - improvements: -1214.57 meV to -155.61 meV
       hydro 2 p 1.7
       hydro 3 d 6
       hydro 2 s 4.9
  #  "Second tier" - improvements: -67.75 meV to -5.23 meV
  #     hydro 4 f 9.8
  #     hydro 3 p 5.2
  #     hydro 3 s 4.3
  #     hydro 5 g 14.4
  #     hydro 3 d 6.2
  #  "Third tier" - improvements: -2.43 meV to -0.60 meV
  #     hydro 2 p 5.6
  #     hydro 2 s 1.4
  #     hydro 3 d 4.9
  #     hydro 4 f 11.2
  #  "Fourth tier" - improvements: -0.39 meV to -0.18 meV
  #     hydro 2 p 2.1
  #     hydro 5 g 16.4
  #     hydro 4 d 13.2
  #     hydro 3 s 13.6
  #     hydro 4 f 17.6
  #  Further basis functions - improvements: -0.08 meV and below
  #     hydro 3 s 2
  #     hydro 3 p 6
  #     hydro 4 d 20
  ################################################################################
  #
  #  FHI-aims code project
  #  VB, Fritz-Haber Institut, 2009
  #
  #  Suggested "light" defaults for N atom (to be pasted into control.in file)
  #  Be sure to double-check any results obtained with these settings for post-processing,
  #  e.g., with the "tight" defaults and larger basis sets.
  #
  ################################################################################
    species        N
  #     global species definitions
      nucleus             7
      mass                14.0067
  #
      l_hartree           4
  #
      cut_pot             3.5  1.5  1.0
      basis_dep_cutoff    1e-4
  #
      radial_base         35 5.0
      radial_multiplier   1
      angular_grids       specified
        division   0.2599   50
        division   0.4601  110
        division   0.5885  194
        division   0.6503  302
  #      division   0.6939  434
  #      division   0.7396  590
  #      division   0.7632  770
  #      division   0.8122  974
  #      division   1.1604 1202
  #      outer_grid  974
        outer_grid  302
  ################################################################################
  #
  #  Definition of "minimal" basis
  #
  ################################################################################
  #     valence basis states
      valence      2  s   2.
      valence      2  p   3.
  #     ion occupancy
      ion_occ      2  s   1.
      ion_occ      2  p   2.
  ################################################################################
  #
  #  Suggested additional basis functions. For production calculations,
  #  uncomment them one after another (the most important basis functions are
  #  listed first).
  #
  #  Constructed for dimers: 1.0 A, 1.1 A, 1.5 A, 2.0 A, 3.0 A
  #
  ################################################################################
  #  "First tier" - improvements: -1193.42 meV to -220.60 meV
       hydro 2 p 1.8
       hydro 3 d 6.8
       hydro 3 s 5.8
  #  "Second tier" - improvements: -80.21 meV to -6.86 meV
  #     hydro 4 f 10.8
  #     hydro 3 p 5.8
  #     hydro 1 s 0.8
  #     hydro 5 g 16
  #     hydro 3 d 4.9
  #  "Third tier" - improvements: -4.29 meV to -0.53 meV
  #     hydro 3 s 16
  #     ionic 2 p auto
  #     hydro 3 d 6.6
  #     hydro 4 f 11.6
  #  "Fourth tier" - improvements: -0.75 meV to -0.25 meV
  #     hydro 2 p 4.5
  #     hydro 2 s 2.4
  #     hydro 5 g 14.4
  #     hydro 4 d 14.4
  #     hydro 4 f 16.8
  # Further basis functions - -0.21 meV and below
  #     hydro 3 p 14.8
  #     hydro 3 s 4.4
  #     hydro 3 d 19.6
  #     hydro 5 g 12.8
  ################################################################################
  #
  #  FHI-aims code project
  #  VB, Fritz-Haber Institut, 2009
  #
  #  Suggested "light" defaults for O atom (to be pasted into control.in file)
  #  Be sure to double-check any results obtained with these settings for post-processing,
  #  e.g., with the "tight" defaults and larger basis sets.
  #
  ################################################################################
    species        O
  #     global species definitions
      nucleus             8
      mass                15.9994
  #
      l_hartree           4
  #
      cut_pot             3.5  1.5  1.0
      basis_dep_cutoff    1e-4
  #
      radial_base         36 5.0
      radial_multiplier   1
       angular_grids specified
        division   0.2659   50
        division   0.4451  110
        division   0.6052  194
        division   0.7543  302
  #      division   0.8014  434
  #      division   0.8507  590
  #      division   0.8762  770
  #      division   0.9023  974
  #      division   1.2339 1202
  #      outer_grid 974
        outer_grid 302
  ################################################################################
  #
  #  Definition of "minimal" basis
  #
  ################################################################################
  #     valence basis states
      valence      2  s   2.
      valence      2  p   4.
  #     ion occupancy
      ion_occ      2  s   1.
      ion_occ      2  p   3.
  ################################################################################
  #
  #  Suggested additional basis functions. For production calculations,
  #  uncomment them one after another (the most important basis functions are
  #  listed first).
  #
  #  Constructed for dimers: 1.0 A, 1.208 A, 1.5 A, 2.0 A, 3.0 A
  #
  ################################################################################
  #  "First tier" - improvements: -699.05 meV to -159.38 meV
       hydro 2 p 1.8
       hydro 3 d 7.6
       hydro 3 s 6.4
  #  "Second tier" - improvements: -49.91 meV to -5.39 meV
  #     hydro 4 f 11.6
  #     hydro 3 p 6.2
  #     hydro 3 d 5.6
  #     hydro 5 g 17.6
  #     hydro 1 s 0.75
  #  "Third tier" - improvements: -2.83 meV to -0.50 meV
  #     ionic 2 p auto
  #     hydro 4 f 10.8
  #     hydro 4 d 4.7
  #     hydro 2 s 6.8
  #  "Fourth tier" - improvements: -0.40 meV to -0.12 meV
  #     hydro 3 p 5
  #     hydro 3 s 3.3
  #     hydro 5 g 15.6
  #     hydro 4 f 17.6
  #     hydro 4 d 14
  # Further basis functions - -0.08 meV and below
  #     hydro 3 s 2.1
  #     hydro 4 d 11.6
  #     hydro 3 p 16
  #     hydro 2 s 17.2
  
  -----------------------------------------------------------------------
  Completed first pass over input file control.in .
  -----------------------------------------------------------------------
  
  
  -----------------------------------------------------------------------
  Parsing geometry.in (first pass over file, find array dimensions only).
  The contents of geometry.in will be repeated verbatim below
  unless switched off by setting 'verbatim_writeout .false.' .
  in the first line of geometry.in .
  -----------------------------------------------------------------------
  
  atom  0.00000 0.00000 0.00000 C
  atom  1.09300 0.00000 0.00000 H
  atom  -0.47961 0.00000 -1.41207 N
  atom  -0.46049 0.95792 -1.76400 H
  atom  0.13648 -0.59089 -1.96652 H
  atom  -0.49584 1.26211 0.72868 C
  atom  -1.58789 1.28919 0.74431 H
  atom  -0.13407 1.27425 1.75947 H
  atom  -0.13407 2.16087 0.22380 H
  atom  -0.39425 -1.28861 0.74398 C
  atom  -0.10189 -1.56493 1.88303 O
  atom  -1.10210 -2.13717 0.06896 O
  atom  -1.98313 -1.85955 0.37176 H
  
  -----------------------------------------------------------------------
  Completed first pass over input file geometry.in .
  -----------------------------------------------------------------------
  

  Basic array size parameters:
  | Number of species                 :        4
  | Number of atoms                   :       13
  | Max. basis fn. angular momentum   :        2
  | Max. atomic/ionic basis occupied n:        2
  | Max. number of basis fn. types    :        2
  | Max. radial fns per species/type  :        3
  | Max. logarithmic grid size        :     1301
  | Max. radial integration grid size :       36
  | Max. angular integration grid size:      302
  | Max. angular grid division number :        8
  | Radial grid for Hartree potential :     1301
  | Number of spin channels           :        1

------------------------------------------------------------
          Reading file control.in.
------------------------------------------------------------
  XC: Using PBE gradient-corrected functionals.
  Spin treatment: No spin polarisation.
  Non-relativistic treatment of kinetic energy.
  Charge =   0.000000E+00: Neutral system requested explicitly.
  Occupation type: Gaussian broadening, width =   0.100000E-01 eV.
  Using pulay charge density mixing.
  Pulay mixing - number of memorized iterations:   10
  Charge density mixing - mixing parameter:     0.2000
  Convergence accuracy of self-consistent charge density:  0.1000E-04
  Convergence accuracy of sum of eigenvalues:  0.1000E-02
  Convergence accuracy of total energy:  0.1000E-05
  Convergence accuracy of forces:  0.1000E-03
  Maximum number of s.-c. iterations  :   100
 
  Reading configuration options for species H                   .
  | Found nuclear charge :   1.0000
  | Found atomic mass :    1.00794000000000      amu
  | Found l_max for Hartree potential  :   4
  | Found cutoff potl. onset [A], width [A], scale factor :    3.50000    1.50000    1.00000
  | Threshold for basis-dependent cutoff potential is   0.100000E-03
  | Found data for basic radial integration grid :    24 points, outermost radius =    5.000 A
  | Found multiplier for basic radial grid :   1
  | Found angular grid specification: user-specified.
  | Specified grid contains     5 separate shells.
  | Check grid settings after all constraints further below.
  | Found free-atom valence shell :  1 s   1.000
  | No ionic wave fns used. Skipping ion_occ.
  | Found hydrogenic basis function :  2 s   2.100
  | Found hydrogenic basis function :  2 p   3.500
  Species H                   : Missing cutoff potential type.
  Defaulting to exp(1/x)/(1-x)^2 type cutoff potential.
  Species H : No 'logarithmic' tag. Using default grid for free atom:
  | Default logarithmic grid data [bohr] : 0.1000E-03 0.1000E+03 0.1012E+01
  Species H : On-site basis accuracy parameter (for Gram-Schmidt orthonormalisation) not specified.
  Using default value basis_acc =  0.1000000E-03.
  Species H                   : Using default innermost maximum threshold i_radial=  2 for radial functions.
  Species H                   : Default cutoff onset for free atom density etc. : 0.35000000E+01 AA.
  Species H                   : Basic radial grid will be enhanced according to radial_multiplier =   1, to contain    24 grid points.
 
  Reading configuration options for species C                   .
  | Found nuclear charge :   6.0000
  | Found atomic mass :    12.0107000000000      amu
  | Found l_max for Hartree potential  :   4
  | Found cutoff potl. onset [A], width [A], scale factor :    3.50000    1.50000    1.00000
  | Threshold for basis-dependent cutoff potential is   0.100000E-03
  | Found data for basic radial integration grid :    34 points, outermost radius =    5.000 A
  | Found multiplier for basic radial grid :   1
  | Found angular grid specification: user-specified.
  | Specified grid contains     5 separate shells.
  | Check grid settings after all constraints further below.
  | Found free-atom valence shell :  2 s   2.000
  | Found free-atom valence shell :  2 p   2.000
  | No ionic wave fns used. Skipping ion_occ.
  | No ionic wave fns used. Skipping ion_occ.
  | Found hydrogenic basis function :  2 p   1.700
  | Found hydrogenic basis function :  3 d   6.000
  | Found hydrogenic basis function :  2 s   4.900
  Species C                   : Missing cutoff potential type.
  Defaulting to exp(1/x)/(1-x)^2 type cutoff potential.
  Species C : No 'logarithmic' tag. Using default grid for free atom:
  | Default logarithmic grid data [bohr] : 0.1000E-03 0.1000E+03 0.1012E+01
  Species C : On-site basis accuracy parameter (for Gram-Schmidt orthonormalisation) not specified.
  Using default value basis_acc =  0.1000000E-03.
  Species C                   : Using default innermost maximum threshold i_radial=  2 for radial functions.
  Species C                   : Default cutoff onset for free atom density etc. : 0.35000000E+01 AA.
  Species C                   : Basic radial grid will be enhanced according to radial_multiplier =   1, to contain    34 grid points.
 
  Reading configuration options for species N                   .
  | Found nuclear charge :   7.0000
  | Found atomic mass :    14.0067000000000      amu
  | Found l_max for Hartree potential  :   4
  | Found cutoff potl. onset [A], width [A], scale factor :    3.50000    1.50000    1.00000
  | Threshold for basis-dependent cutoff potential is   0.100000E-03
  | Found data for basic radial integration grid :    35 points, outermost radius =    5.000 A
  | Found multiplier for basic radial grid :   1
  | Found angular grid specification: user-specified.
  | Specified grid contains     5 separate shells.
  | Check grid settings after all constraints further below.
  | Found free-atom valence shell :  2 s   2.000
  | Found free-atom valence shell :  2 p   3.000
  | No ionic wave fns used. Skipping ion_occ.
  | No ionic wave fns used. Skipping ion_occ.
  | Found hydrogenic basis function :  2 p   1.800
  | Found hydrogenic basis function :  3 d   6.800
  | Found hydrogenic basis function :  3 s   5.800
  Species N                   : Missing cutoff potential type.
  Defaulting to exp(1/x)/(1-x)^2 type cutoff potential.
  Species N : No 'logarithmic' tag. Using default grid for free atom:
  | Default logarithmic grid data [bohr] : 0.1000E-03 0.1000E+03 0.1012E+01
  Species N : On-site basis accuracy parameter (for Gram-Schmidt orthonormalisation) not specified.
  Using default value basis_acc =  0.1000000E-03.
  Species N                   : Using default innermost maximum threshold i_radial=  2 for radial functions.
  Species N                   : Default cutoff onset for free atom density etc. : 0.35000000E+01 AA.
  Species N                   : Basic radial grid will be enhanced according to radial_multiplier =   1, to contain    35 grid points.
 
  Reading configuration options for species O                   .
  | Found nuclear charge :   8.0000
  | Found atomic mass :    15.9994000000000      amu
  | Found l_max for Hartree potential  :   4
  | Found cutoff potl. onset [A], width [A], scale factor :    3.50000    1.50000    1.00000
  | Threshold for basis-dependent cutoff potential is   0.100000E-03
  | Found data for basic radial integration grid :    36 points, outermost radius =    5.000 A
  | Found multiplier for basic radial grid :   1
  | Found angular grid specification: user-specified.
  | Specified grid contains     5 separate shells.
  | Check grid settings after all constraints further below.
  | Found free-atom valence shell :  2 s   2.000
  | Found free-atom valence shell :  2 p   4.000
  | No ionic wave fns used. Skipping ion_occ.
  | No ionic wave fns used. Skipping ion_occ.
  | Found hydrogenic basis function :  2 p   1.800
  | Found hydrogenic basis function :  3 d   7.600
  | Found hydrogenic basis function :  3 s   6.400
  Species O                   : Missing cutoff potential type.
  Defaulting to exp(1/x)/(1-x)^2 type cutoff potential.
  Species O : No 'logarithmic' tag. Using default grid for free atom:
  | Default logarithmic grid data [bohr] : 0.1000E-03 0.1000E+03 0.1012E+01
  Species O : On-site basis accuracy parameter (for Gram-Schmidt orthonormalisation) not specified.
  Using default value basis_acc =  0.1000000E-03.
  Species O                   : Using default innermost maximum threshold i_radial=  2 for radial functions.
  Species O                   : Default cutoff onset for free atom density etc. : 0.35000000E+01 AA.
  Species O                   : Basic radial grid will be enhanced according to radial_multiplier =   1, to contain    36 grid points.
 
  Finished reading input file 'control.in'. Consistency checks are next.
 
  MPI_IN_PLACE appears to work with this MPI implementation.
  | Keeping use_mpi_in_place .true. (see manual).
  Target number of points in a grid batch is not set. Defaulting to  100
  Method for grid partitioning is not set. Defaulting to parallel hash+maxmin partitioning.
  Batch size limit is not set. Defaulting to    200
  By default, will store active basis functions for each batch.
  If in need of memory, prune_basis_once .false. can be used to disable this option.
  communication_type for Hartree potential was not specified.
  Defaulting to calc_hartree .
  Pulay mixer: Number of initial linear mixing iterations not set.
  Defaulting to    0 iterations.
  Work space size for distributed Hartree potential not set.
  Defaulting to   0.200000E+03 MB.
  Algorithm-dependent basis array size parameters:
  | n_max_pulay                         :       10
  Presetting      1001 iterations before the initial mixing cycle
  is restarted anyway using the sc_init_iter criterion / keyword.
  Presetting a factor      1.000 between actual scf density residual
  and density convergence criterion sc_accuracy_rho below which sc_init_iter
  takes no effect.
  Geometry relaxation not requested: no relaxation will be performed.
  Handling of forces: Unphysical translation and rotation will be removed from forces.
  No accuracy limit for integral partition fn. given. Defaulting to  0.1000E-14.
  No threshold value for u(r) in integrations given. Defaulting to  0.1000E-05.
  No accuracy for occupation numbers given. Defaulting to  0.1000E-12.
  No threshold value for occupation numbers given. Defaulting to  0.0000E+00.
  No accuracy for fermi level given. Defaulting to  0.1000E-19.
  Maximum # of iterations to find E_F not set. Defaulting to  200.
  Preferred method for the eigenvalue solver ('KS_method') not specified in 'control.in'.
  Defaulting to serial version, 'lapack_fast'.
  Will not use alltoall communication since running on < 1024 CPUs.
  Threshold for basis singularities not set.
  Default threshold for basis singularities:  0.1000E-04
  partition_type (choice of integration weights) for integrals was not specified.
  | Using a version of the partition function of Stratmann and coworkers ('stratmann_smoother').
  | At each grid point, the set of atoms used to build the partition table is smoothly restricted to
  | only those atoms whose free-atom density would be non-zero at that grid point.
  Partitioning for Hartree potential was not defined. Using partition_type for integrals.
  | Adjusted default value of keyword multip_moments_threshold to:       0.10000000E-11
  | This value may affect high angular momentum components of the Hartree potential in periodic systems.
  No q(lm)/r^(l+1) cutoff set for long-range Hartree potential.
  | Using default value of  0.100000E-09 .
  | Verify using the multipole_threshold keyword.
  Defaulting to new monopole extrapolation.
  Density update method: automatic selection selected.
------------------------------------------------------------


------------------------------------------------------------
          Reading geometry description geometry.in.
------------------------------------------------------------
  Input structure read successfully.
  The structure contains       13 atoms,  and a total of         48.000 electrons.

  Input geometry:
  | No unit cell requested.
  | Atomic structure:
  |       Atom                x [A]            y [A]            z [A]
  |    1: Species C             0.00000000        0.00000000        0.00000000
  |    2: Species H             1.09300000        0.00000000        0.00000000
  |    3: Species N            -0.47961000        0.00000000       -1.41207000
  |    4: Species H            -0.46049000        0.95792000       -1.76400000
  |    5: Species H             0.13648000       -0.59089000       -1.96652000
  |    6: Species C            -0.49584000        1.26211000        0.72868000
  |    7: Species H            -1.58789000        1.28919000        0.74431000
  |    8: Species H            -0.13407000        1.27425000        1.75947000
  |    9: Species H            -0.13407000        2.16087000        0.22380000
  |   10: Species C            -0.39425000       -1.28861000        0.74398000
  |   11: Species O            -0.10189000       -1.56493000        1.88303000
  |   12: Species O            -1.10210000       -2.13717000        0.06896000
  |   13: Species H            -1.98313000       -1.85955000        0.37176000
  |

  | The smallest distance between any two atoms is         0.97209802 AA.
  |
  | The first atom of this pair is atom number                     12 .
  | The second atom of this pair is atom number                    13 .

  Number of empty states per atom not set in control.in - providing a guess from actual geometry.
  | Total number of empty states used during s.c.f. cycle:       29
  If you use a very high smearing, use empty_states (per atom!) in control.in to increase this value.

  Structure-dependent array size parameters: 
  | Maximum number of distinct radial functions  :       21
  | Maximum number of basis functions            :      119
  | Number of Kohn-Sham states (occupied + empty):       53
------------------------------------------------------------

------------------------------------------------------------
          Preparing all fixed parts of the calculation.
------------------------------------------------------------
  Determining machine precision:
    2.225073858507201E-308
  Setting up grids for atomic and cluster calculations.

  Creating wave function, potential, and density for free atoms.

  Species: H

  List of occupied orbitals and eigenvalues:
    n    l              occ      energy [Ha]    energy [eV]
    1    0           1.0000        -0.237589        -6.4651


  Species: C

  List of occupied orbitals and eigenvalues:
    n    l              occ      energy [Ha]    energy [eV]
    1    0           2.0000       -10.038835      -273.1706
    2    0           2.0000        -0.502696       -13.6791
    2    1           2.0000        -0.191971        -5.2238


  Species: N

  List of occupied orbitals and eigenvalues:
    n    l              occ      energy [Ha]    energy [eV]
    1    0           2.0000       -14.128000      -384.4424
    2    0           2.0000        -0.681077       -18.5330
    2    1           3.0000        -0.259788        -7.0692


  Species: O

  List of occupied orbitals and eigenvalues:
    n    l              occ      energy [Ha]    energy [eV]
    1    0           2.0000       -18.898188      -514.2459
    2    0           2.0000        -0.878505       -23.9053
    2    1           4.0000        -0.331779        -9.0282

  Creating fixed part of basis set: Ionic, confined, hydrogenic.
 
  H                    hydrogenic:
 
  List of hydrogenic basis orbitals: 
    n    l      effective z      eigenvalue [eV]  inner max. [A]     outer max. [A]     outer radius [A]   
    2    0         2.100000       -14.9728           0.193243           1.317208           4.583499
    2    1         3.500000       -41.6669           0.602369           0.602369           3.723403
 
 
  C                    hydrogenic:
 
  List of hydrogenic basis orbitals: 
    n    l      effective z      eigenvalue [eV]  inner max. [A]     outer max. [A]     outer radius [A]   
    2    1         1.700000        -9.7616           1.230570           1.230570           4.607917
    3    2         6.000000       -54.4224           0.792453           0.792453           3.883070
    2    0         4.900000       -81.6679           0.082559           0.562749           3.078220
 
 
  N                    hydrogenic:
 
  List of hydrogenic basis orbitals: 
    n    l      effective z      eigenvalue [eV]  inner max. [A]     outer max. [A]     outer radius [A]   
    2    1         1.800000       -10.9749           1.177451           1.177451           4.573712
    3    2         6.800000       -69.9026           0.704619           0.704619           3.538137
    3    0         5.800000       -50.8545           0.067388           1.191934           4.250239
 
 
  O                    hydrogenic:
 
  List of hydrogenic basis orbitals: 
    n    l      effective z      eigenvalue [eV]  inner max. [A]     outer max. [A]     outer radius [A]   
    2    1         1.800000       -10.9749           1.164242           1.164242           4.578029
    3    2         7.600000       -87.3180           0.624125           0.624125           3.251020
    3    0         6.400000       -61.9207           0.061167           1.081902           4.001998
 

  Adding cutoff potential to free-atom effective potential.
  Creating atomic-like basis functions for current effective potential.

  Species H                   :

  List of atomic basis orbitals and eigenvalues:
    n    l      energy [Ha]    energy [eV]    outer radius [A]
    1    0        -0.237589        -6.4651       4.527807


  Species C                   :

  List of atomic basis orbitals and eigenvalues:
    n    l      energy [Ha]    energy [eV]    outer radius [A]
    1    0       -10.038835      -273.1706       1.934409
    2    0        -0.502696       -13.6791       4.496620
    2    1        -0.191971        -5.2238       4.551928


  Species N                   :

  List of atomic basis orbitals and eigenvalues:
    n    l      energy [Ha]    energy [eV]    outer radius [A]
    1    0       -14.128000      -384.4424       1.637919
    2    0        -0.681077       -18.5330       4.463241
    2    1        -0.259788        -7.0692       4.518138


  Species O                   :

  List of atomic basis orbitals and eigenvalues:
    n    l      energy [Ha]    energy [eV]    outer radius [A]
    1    0       -18.898188      -514.2459       1.415765
    2    0        -0.878505       -23.9053       4.413171
    2    1        -0.331779        -9.0282       4.522403

  Assembling full basis from fixed parts.
  | Species H :   atomic orbital   1 s accepted.
  | Species H :    hydro orbital   2 s accepted.
  | Species H :    hydro orbital   2 p accepted.
  | Species C :   atomic orbital   1 s accepted.
  | Species C :    hydro orbital   2 s accepted.
  | Species C :   atomic orbital   2 s accepted.
  | Species C :   atomic orbital   2 p accepted.
  | Species C :    hydro orbital   2 p accepted.
  | Species C :    hydro orbital   3 d accepted.
  | Species N :   atomic orbital   1 s accepted.
  | Species N :    hydro orbital   3 s accepted.
  | Species N :   atomic orbital   2 s accepted.
  | Species N :   atomic orbital   2 p accepted.
  | Species N :    hydro orbital   2 p accepted.
  | Species N :    hydro orbital   3 d accepted.
  | Species O :   atomic orbital   1 s accepted.
  | Species O :    hydro orbital   3 s accepted.
  | Species O :   atomic orbital   2 s accepted.
  | Species O :   atomic orbital   2 p accepted.
  | Species O :    hydro orbital   2 p accepted.
  | Species O :    hydro orbital   3 d accepted.
 
  Basis size parameters after reduction:
  | Total number of radial functions:       21
  | Total number of basis functions :      119
 
  Per-task memory consumption for arrays in subroutine allocate_ext:
  |           5.250512MB.
  Testing on-site integration grid accuracy.
  |  Species  Function  <phi|h_atom|phi> (log., in eV)  <phi|h_atom|phi> (rad., in eV)
           1        1                 -6.4663192853                 -6.4651273558
           1        2                 13.7111246313                 13.7170609718
           1        3                 25.2673269279                 25.2674696378
           2        4               -273.1705927641               -273.1705631568
           2        5                -10.7109323383                -10.7107120029
           2        6                 17.4381822266                 17.4352413244
           2        7                 -5.2255326521                 -5.2270484734
           2        8                  8.6835629259                  8.6603288385
           2        9                 27.4952418996                 27.4953360207
           3       10               -384.4424306495               -384.4423701208
           3       11                 12.5842251816                 12.5842222903
           3       12                -15.7264628251                -15.7264433455
           3       13                 -7.0696854293                 -7.0701769954
           3       14                  8.8090390882                  8.7901077751
           3       15                 35.9586762123                 35.9588528632
           4       16               -514.2458688638               -514.2457643834
           4       17                 15.1795651126                 15.1795290741
           4       18                -21.5359799773                -21.5360846186
           4       19                 -9.0283069236                 -9.0284644067
           4       20                  8.3027758564                  8.2834874195
           4       21                 45.8339351984                 45.8338762259

  Preparing densities etc. for the partition functions (integrals / Hartree potential).

  Preparations completed.
  max(cpu_time)          :      0.144 s.
  Wall clock time (cpu1) :      0.145 s.
------------------------------------------------------------

------------------------------------------------------------
          Begin self-consistency loop: Initialization.

          Date     :  20200815, Time     :  001640.470
------------------------------------------------------------

  Initializing index lists of integration centers etc. from given atomic structure:
  | Number of centers in hartree potential         :        13
  | Number of centers in hartree multipole         :        13
  | Number of centers in electron density summation:        13
  | Number of centers in basis integrals           :        13
  | Number of centers in integrals                 :        13
  | Number of centers in hamiltonian               :        13
  Partitioning the integration grid into batches with parallel hashing+maxmin method.
  | Number of batches:      957
  | Maximal batch size:     139
  | Minimal batch size:      66
  | Average batch size:      72.775
  | Standard deviation of batch sizes:      17.414

  Integration load balanced across     1 MPI tasks.
  Work distribution over tasks is as follows:
  Task     0 has      69646 integration points.
  Initializing partition tables, free-atom densities, potentials, etc. across the integration grid (initialize_grid_storage).
  | initialize_grid_storage: Actual outermost partition radius vs. multipole_radius_free
  | (-- VB: in principle, multipole_radius_free should be larger, hence this output)
  | Species        1: Confinement radius =              4.999999999999999 AA, multipole_radius_free =              5.054417573612229 AA.
  | Species        1: outer_partition_radius set to              5.054417573612229 AA .
  | Species        2: Confinement radius =              4.999999999999999 AA, multipole_radius_free =              5.019602836301480 AA.
  | Species        2: outer_partition_radius set to              5.019602836301480 AA .
  | Species        3: Confinement radius =              4.999999999999999 AA, multipole_radius_free =              5.043624274424571 AA.
  | Species        3: outer_partition_radius set to              5.043624274424571 AA .
  | Species        4: Confinement radius =              4.999999999999999 AA, multipole_radius_free =              5.048384829883283 AA.
  | Species        4: outer_partition_radius set to              5.048384829883283 AA .
  | Original list of interatomic distances with          13 x         13 entries is created.
  | Net number of integration points:    69646
  | of which are non-zero points    :    59535
  Renormalizing the initial density to the exact electron count on the 3D integration grid.
  | Initial density: Formal number of electrons (from input files) :      48.0000000000
  | Integrated number of electrons on 3D grid     :      47.9999263865
  | Charge integration error                      :      -0.0000736135
  | Normalization factor for density and gradient :       1.0000015336
  Obtaining max. number of non-zero basis functions in each batch (get_n_compute_maxes).
  | Maximal number of non-zero basis functions:      119 in task     0
  Selecting the method for density update.
  Loop over occupied states selected for charge density update.
  Allocating        0.050 MB for KS_eigenvector
  Integrating Hamiltonian matrix: batch-based integration.
  Time summed over all CPUs for integration: real work        0.490 s, elapsed        0.490 s
  Integrating overlap matrix.
  Time summed over all CPUs for integration: real work        0.210 s, elapsed        0.210 s

  Updating Kohn-Sham eigenvalues and eigenvectors using ELSI and the ELPA eigensolver.
  Overlap matrix is nonsingular
  | Lowest eigenvalue of overlap  :  0.47E-02
  | Highest eigenvalue of overlap :  0.61E+01
  Finished singularity check of overlap matrix
  | Time :     0.002 s
  Finished Cholesky decomposition
  | Time :     0.000 s
  Finished transformation to standard eigenproblem
  | Time :     0.000 s
  Starting LAPACK eigensolver
  Finished solving standard eigenproblem
  | Time :     0.002 s
  Finished back-transformation of eigenvectors
  | Time :     0.000 s

  Obtaining occupation numbers and chemical potential using ELSI.
  | Chemical potential (Fermi level):    -9.69019671eV
  Writing Kohn-Sham eigenvalues.

  State    Occupation    Eigenvalue [Ha]    Eigenvalue [eV]
      1       2.00000         -19.007535         -517.22133
      2       2.00000         -18.977350         -516.39997
      3       2.00000         -14.245817         -387.64839
      4       2.00000         -10.166781         -276.65219
      5       2.00000         -10.141310         -275.95908
      6       2.00000         -10.131918         -275.70353
      7       2.00000          -1.183473          -32.20395
      8       2.00000          -1.096581          -29.83950
      9       2.00000          -0.991353          -26.97609
     10       2.00000          -0.860291          -23.40971
     11       2.00000          -0.757724          -20.61873
     12       2.00000          -0.677198          -18.42748
     13       2.00000          -0.621576          -16.91394
     14       2.00000          -0.608166          -16.54905
     15       2.00000          -0.595095          -16.19335
     16       2.00000          -0.570749          -15.53086
     17       2.00000          -0.552839          -15.04352
     18       2.00000          -0.530330          -14.43102
     19       2.00000          -0.513705          -13.97863
     20       2.00000          -0.504684          -13.73315
     21       2.00000          -0.458757          -12.48341
     22       2.00000          -0.427040          -11.62035
     23       2.00000          -0.407430          -11.08675
     24       2.00000          -0.381348          -10.37701
     25       0.00000          -0.163108           -4.43840
     26       0.00000          -0.064359           -1.75129
     27       0.00000          -0.035669           -0.97061
     28       0.00000          -0.022538           -0.61328
     29       0.00000           0.000560            0.01523
     30       0.00000           0.008390            0.22831
     31       0.00000           0.019951            0.54290
     32       0.00000           0.029918            0.81411
     33       0.00000           0.041803            1.13751
     34       0.00000           0.076710            2.08739
     35       0.00000           0.081310            2.21255
     36       0.00000           0.134976            3.67287
     37       0.00000           0.155415            4.22905
     38       0.00000           0.206726            5.62530
     39       0.00000           0.219943            5.98496
     40       0.00000           0.230390            6.26924
     41       0.00000           0.244408            6.65068
     42       0.00000           0.267821            7.28777
     43       0.00000           0.285974            7.78176
     44       0.00000           0.298440            8.12096
     45       0.00000           0.315365            8.58153
     46       0.00000           0.367029            9.98737
     47       0.00000           0.378043           10.28708
     48       0.00000           0.412207           11.21672
     49       0.00000           0.460698           12.53624
     50       0.00000           0.467511           12.72163
     51       0.00000           0.493572           13.43076
     52       0.00000           0.524239           14.26526
     53       0.00000           0.561175           15.27035

  Highest occupied state (VBM) at    -10.37701304 eV
  | Occupation number:      2.00000000

  Lowest unoccupied state (CBM) at    -4.43839849 eV
  | Occupation number:      0.00000000

  Overall HOMO-LUMO gap:      5.93861455 eV.
  Calculating total energy contributions from superposition of free atom densities.

  Total energy components:
  | Sum of eigenvalues            :        -188.81810235 Ha       -5138.00198356 eV
  | XC energy correction          :         -41.78271384 Ha       -1136.96549163 eV
  | XC potential correction       :          53.71169799 Ha        1461.56966614 eV
  | Free-atom electrostatic energy:        -146.86770790 Ha       -3996.47367042 eV
  | Hartree energy correction     :           0.00000000 Ha           0.00000000 eV
  | vdW energy correction         :           0.00000000 Ha           0.00000000 eV
  | Entropy correction            :           0.00000000 Ha           0.00000000 eV
  | ---------------------------
  | Total energy                  :        -323.75682610 Ha       -8809.87147947 eV
  | Total energy, T -> 0          :        -323.75682610 Ha       -8809.87147947 eV  <-- do not rely on this value for anything but (periodic) metals
  | Electronic free energy        :        -323.75682610 Ha       -8809.87147947 eV

  Derived energy quantities:
  | Kinetic energy                :         320.48700638 Ha        8720.89515788 eV
  | Electrostatic energy          :        -602.46111864 Ha      -16393.80114572 eV
  | Energy correction for multipole
  | error in Hartree potential    :           0.00000000 Ha           0.00000000 eV
  | Sum of eigenvalues per atom                           :        -395.23092181 eV
  | Total energy (T->0) per atom                          :        -677.68242150 eV  <-- do not rely on this value for anything but (periodic) metals
  | Electronic free energy per atom                       :        -677.68242150 eV
  Initialize hartree_potential_storage
  Max. number of atoms included in rho_multipole:           13

  End scf initialization - timings             :  max(cpu_time)    wall_clock(cpu1)
  | Time for scf. initialization               :        1.138 s           1.140 s
  | Boundary condition initialization          :        0.000 s           0.000 s
  | Integration                                :        0.701 s           0.701 s
  | Solution of K.-S. eqns.                    :        0.004 s           0.004 s
  | Grid partitioning                          :        0.109 s           0.109 s
  | Preloading free-atom quantities on grid    :        0.002 s           0.002 s
  | Free-atom superposition energy             :        0.084 s           0.084 s
  | Total energy evaluation                    :        0.000 s           0.000 s

  Partial memory accounting:
  | Current value for overall tracked memory usage on task 0  :           0.165 MB
  | Peak value for overall tracked memory usage on task 0     :           0.678 MB after allocating wave
  | Largest tracked array allocation on task 0 so far         :           0.132 MB  when allocating H_times_psi
  Note:  These values currently only include a subset of arrays which are explicitly tracked.
  The "true" memory usage will be greater.
------------------------------------------------------------

------------------------------------------------------------
          Begin self-consistency iteration #    1

  Date     :  20200815, Time     :  001641.610
------------------------------------------------------------
  Evaluating new KS density.
  Integration grid: deviation in total charge (<rho> - N_e) =  -3.552714E-14
  Pulay mixing of updated and previous charge densities.

  Evaluating partitioned Hartree potential by multipole expansion.
  | Analytical far-field extrapolation by fixed multipoles:
  | Hartree multipole sum: apparent total charge =  -0.180276E-03
  Summing up the Hartree potential.
  Time summed over all CPUs for potential: real work        0.279 s, elapsed        0.279 s
  | RMS charge density error from multipole expansion :   0.585294E-02

  Integrating Hamiltonian matrix: batch-based integration.
  Time summed over all CPUs for integration: real work        0.490 s, elapsed        0.490 s

  Updating Kohn-Sham eigenvalues and eigenvectors using ELSI and the ELPA eigensolver.
  Finished Cholesky decomposition
  | Time :     0.000 s
  Finished transformation to standard eigenproblem
  | Time :     0.000 s
  Starting LAPACK eigensolver
  Finished solving standard eigenproblem
  | Time :     0.001 s
  Finished back-transformation of eigenvectors
  | Time :     0.000 s

  Obtaining occupation numbers and chemical potential using ELSI.
  | Chemical potential (Fermi level):    -4.38469706eV
  Writing Kohn-Sham eigenvalues.

  State    Occupation    Eigenvalue [Ha]    Eigenvalue [eV]
      1       2.00000         -18.890681         -514.04159
      2       2.00000         -18.839182         -512.64021
      3       2.00000         -14.096158         -383.57597
      4       2.00000         -10.115639         -275.26053
      5       2.00000         -10.062942         -273.82657
      6       2.00000         -10.034320         -273.04774
      7       2.00000          -1.129635          -30.73894
      8       2.00000          -1.031853          -28.07814
      9       2.00000          -0.921600          -25.07800
     10       2.00000          -0.795396          -21.64382
     11       2.00000          -0.706283          -19.21895
     12       2.00000          -0.628090          -17.09119
     13       2.00000          -0.563119          -15.32325
     14       2.00000          -0.556052          -15.13095
     15       2.00000          -0.530539          -14.43669
     16       2.00000          -0.512216          -13.93810
     17       2.00000          -0.489460          -13.31890
     18       2.00000          -0.471797          -12.83825
     19       2.00000          -0.449692          -12.23675
     20       2.00000          -0.445845          -12.13205
     21       2.00000          -0.395977          -10.77508
     22       2.00000          -0.366397           -9.97017
     23       2.00000          -0.334611           -9.10522
     24       2.00000          -0.309926           -8.43351
     25       0.00000          -0.126988           -3.45551
     26       0.00000          -0.041368           -1.12568
     27       0.00000          -0.010156           -0.27636
     28       0.00000           0.015564            0.42351
     29       0.00000           0.031544            0.85836
     30       0.00000           0.044048            1.19862
     31       0.00000           0.059402            1.61640
     32       0.00000           0.069546            1.89244
     33       0.00000           0.079313            2.15823
     34       0.00000           0.115723            3.14899
     35       0.00000           0.122920            3.34482
     36       0.00000           0.163574            4.45108
     37       0.00000           0.181481            4.93835
     38       0.00000           0.236522            6.43608
     39       0.00000           0.251849            6.85317
     40       0.00000           0.265118            7.21423
     41       0.00000           0.281015            7.64682
     42       0.00000           0.299639            8.15358
     43       0.00000           0.323398            8.80010
     44       0.00000           0.336598            9.15929
     45       0.00000           0.356199            9.69268
     46       0.00000           0.412423           11.22259
     47       0.00000           0.416429           11.33161
     48       0.00000           0.449151           12.22202
     49       0.00000           0.496417           13.50820
     50       0.00000           0.499920           13.60352
     51       0.00000           0.531818           14.47151
     52       0.00000           0.556809           15.15154
     53       0.00000           0.600229           16.33306

  Highest occupied state (VBM) at     -8.43351237 eV
  | Occupation number:      2.00000000

  Lowest unoccupied state (CBM) at    -3.45551067 eV
  | Occupation number:      0.00000000

  Overall HOMO-LUMO gap:      4.97800169 eV.

  Total energy components:
  | Sum of eigenvalues            :        -185.35481629 Ha       -5043.76117495 eV
  | XC energy correction          :         -42.11433945 Ha       -1145.98948378 eV
  | XC potential correction       :          54.14308398 Ha        1473.30827631 eV
  | Free-atom electrostatic energy:        -146.86770790 Ha       -3996.47367042 eV
  | Hartree energy correction     :          -3.37802175 Ha         -91.92064881 eV
  | vdW energy correction         :           0.00000000 Ha           0.00000000 eV
  | Entropy correction            :           0.00000000 Ha           0.00000000 eV
  | ---------------------------
  | Total energy                  :        -323.57180141 Ha       -8804.83670166 eV
  | Total energy, T -> 0          :        -323.57180141 Ha       -8804.83670166 eV  <-- do not rely on this value for anything but (periodic) metals
  | Electronic free energy        :        -323.57180141 Ha       -8804.83670166 eV

  Derived energy quantities:
  | Kinetic energy                :         322.29635479 Ha        8770.13003304 eV
  | Electrostatic energy          :        -603.75381675 Ha      -16428.97725092 eV
  | Energy correction for multipole
  | error in Hartree potential    :           0.01212706 Ha           0.32999411 eV
  | Sum of eigenvalues per atom                           :        -387.98162884 eV
  | Total energy (T->0) per atom                          :        -677.29513090 eV  <-- do not rely on this value for anything but (periodic) metals
  | Electronic free energy per atom                       :        -677.29513090 eV

  Self-consistency convergence accuracy:
  | Change of charge density      :  0.5910E+00
  | Change of sum of eigenvalues  :  0.9424E+02 eV
  | Change of total energy        :  0.5035E+01 eV

  End self-consistency iteration #     1       :  max(cpu_time)    wall_clock(cpu1)
  | Time for this iteration                    :        1.179 s           1.179 s
  | Charge density update                      :        0.392 s           0.392 s
  | Density mixing                             :        0.005 s           0.006 s
  | Hartree multipole update                   :        0.009 s           0.009 s
  | Hartree multipole summation                :        0.280 s           0.280 s
  | Integration                                :        0.490 s           0.490 s
  | Solution of K.-S. eqns.                    :        0.002 s           0.002 s
  | Total energy evaluation                    :        0.000 s           0.000 s

  Partial memory accounting:
  | Current value for overall tracked memory usage on task 0  :           0.165 MB
  | Peak value for overall tracked memory usage on task 0     :           0.695 MB after allocating gradient_basis_wave
  | Largest tracked array allocation on task 0 so far         :           0.397 MB  when allocating gradient_basis_wave
  Note:  These values currently only include a subset of arrays which are explicitly tracked.
  The "true" memory usage will be greater.
------------------------------------------------------------

------------------------------------------------------------
          Begin self-consistency iteration #    2

  Date     :  20200815, Time     :  001642.790
------------------------------------------------------------
  Evaluating new KS density.
  Integration grid: deviation in total charge (<rho> - N_e) =   7.105427E-15
  Pulay mixing of updated and previous charge densities.

  Evaluating partitioned Hartree potential by multipole expansion.
  | Analytical far-field extrapolation by fixed multipoles:
  | Hartree multipole sum: apparent total charge =  -0.316361E-03
  Summing up the Hartree potential.
  Time summed over all CPUs for potential: real work        0.279 s, elapsed        0.279 s
  | RMS charge density error from multipole expansion :   0.138470E-01

  Integrating Hamiltonian matrix: batch-based integration.
  Time summed over all CPUs for integration: real work        0.490 s, elapsed        0.490 s

  Updating Kohn-Sham eigenvalues and eigenvectors using ELSI and the ELPA eigensolver.
  Finished Cholesky decomposition
  | Time :     0.000 s
  Finished transformation to standard eigenproblem
  | Time :     0.000 s
  Starting LAPACK eigensolver
  Finished solving standard eigenproblem
  | Time :     0.001 s
  Finished back-transformation of eigenvectors
  | Time :     0.000 s

  Obtaining occupation numbers and chemical potential using ELSI.
  | Chemical potential (Fermi level):    -3.01740248eV
  Highest occupied state (VBM) at     -6.46768533 eV
  | Occupation number:      2.00000000

  Lowest unoccupied state (CBM) at    -2.21308055 eV
  | Occupation number:      0.00000000

  Overall HOMO-LUMO gap:      4.25460477 eV.

  Checking to see if s.c.f. parameters should be adjusted.

  Total energy components:
  | Sum of eigenvalues            :        -181.73362301 Ha       -4945.22349233 eV
  | XC energy correction          :         -42.47461394 Ha       -1155.79305144 eV
  | XC potential correction       :          54.61020767 Ha        1486.01935840 eV
  | Free-atom electrostatic energy:        -146.86770790 Ha       -3996.47367042 eV
  | Hartree energy correction     :          -7.02606555 Ha        -191.18897128 eV
  | vdW energy correction         :           0.00000000 Ha           0.00000000 eV
  | Entropy correction            :           0.00000000 Ha           0.00000000 eV
  | ---------------------------
  | Total energy                  :        -323.49180274 Ha       -8802.65982706 eV
  | Total energy, T -> 0          :        -323.49180274 Ha       -8802.65982706 eV  <-- do not rely on this value for anything but (periodic) metals
  | Electronic free energy        :        -323.49180274 Ha       -8802.65982706 eV

  Derived energy quantities:
  | Kinetic energy                :         323.61313219 Ha        8805.96136929 eV
  | Electrostatic energy          :        -604.63032099 Ha      -16452.82814492 eV
  | Energy correction for multipole
  | error in Hartree potential    :           0.02661655 Ha           0.72427318 eV
  | Sum of eigenvalues per atom                           :        -380.40180710 eV
  | Total energy (T->0) per atom                          :        -677.12767900 eV  <-- do not rely on this value for anything but (periodic) metals
  | Electronic free energy per atom                       :        -677.12767900 eV

  Self-consistency convergence accuracy:
  | Change of charge density      :  0.3695E+00
  | Change of sum of eigenvalues  :  0.9854E+02 eV
  | Change of total energy        :  0.2177E+01 eV

  End self-consistency iteration #     2       :  max(cpu_time)    wall_clock(cpu1)
  | Time for this iteration                    :        1.172 s           1.172 s
  | Charge density update                      :        0.384 s           0.385 s
  | Density mixing                             :        0.007 s           0.006 s
  | Hartree multipole update                   :        0.009 s           0.009 s
  | Hartree multipole summation                :        0.280 s           0.280 s
  | Integration                                :        0.490 s           0.490 s
  | Solution of K.-S. eqns.                    :        0.002 s           0.002 s
  | Total energy evaluation                    :        0.000 s           0.000 s

  Partial memory accounting:
  | Current value for overall tracked memory usage on task 0  :           0.166 MB
  | Peak value for overall tracked memory usage on task 0     :           0.695 MB after allocating gradient_basis_wave
  | Largest tracked array allocation on task 0 so far         :           0.397 MB  when allocating gradient_basis_wave
  Note:  These values currently only include a subset of arrays which are explicitly tracked.
  The "true" memory usage will be greater.
------------------------------------------------------------

------------------------------------------------------------
          Begin self-consistency iteration #    3

  Date     :  20200815, Time     :  001643.963
------------------------------------------------------------
  Evaluating new KS density.
  Integration grid: deviation in total charge (<rho> - N_e) =   2.842171E-14
  Pulay mixing of updated and previous charge densities.

  Evaluating partitioned Hartree potential by multipole expansion.
  | Analytical far-field extrapolation by fixed multipoles:
  | Hartree multipole sum: apparent total charge =  -0.413775E-03
  Summing up the Hartree potential.
  Time summed over all CPUs for potential: real work        0.279 s, elapsed        0.279 s
  | RMS charge density error from multipole expansion :   0.217647E-01

  Integrating Hamiltonian matrix: batch-based integration.
  Time summed over all CPUs for integration: real work        0.490 s, elapsed        0.490 s

  Updating Kohn-Sham eigenvalues and eigenvectors using ELSI and the ELPA eigensolver.
  Finished Cholesky decomposition
  | Time :     0.000 s
  Finished transformation to standard eigenproblem
  | Time :     0.000 s
  Starting LAPACK eigensolver
  Finished solving standard eigenproblem
  | Time :     0.001 s
  Finished back-transformation of eigenvectors
  | Time :     0.000 s

  Obtaining occupation numbers and chemical potential using ELSI.
  | Chemical potential (Fermi level):    -2.30799741eV
  Highest occupied state (VBM) at     -5.78557102 eV
  | Occupation number:      2.00000000

  Lowest unoccupied state (CBM) at    -1.52189425 eV
  | Occupation number:      0.00000000

  Overall HOMO-LUMO gap:      4.26367677 eV.

  Total energy components:
  | Sum of eigenvalues            :        -180.41739103 Ha       -4909.40699782 eV
  | XC energy correction          :         -42.62502001 Ha       -1159.88580872 eV
  | XC potential correction       :          54.80210564 Ha        1491.24116811 eV
  | Free-atom electrostatic energy:        -146.86770790 Ha       -3996.47367042 eV
  | Hartree energy correction     :          -8.37037380 Ha        -227.76945999 eV
  | vdW energy correction         :           0.00000000 Ha           0.00000000 eV
  | Entropy correction            :           0.00000000 Ha           0.00000000 eV
  | ---------------------------
  | Total energy                  :        -323.47838710 Ha       -8802.29476883 eV
  | Total energy, T -> 0          :        -323.47838710 Ha       -8802.29476883 eV  <-- do not rely on this value for anything but (periodic) metals
  | Electronic free energy        :        -323.47838710 Ha       -8802.29476883 eV

  Derived energy quantities:
  | Kinetic energy                :         323.18617357 Ha        8794.34323411 eV
  | Electrostatic energy          :        -604.03954066 Ha      -16436.75219422 eV
  | Energy correction for multipole
  | error in Hartree potential    :           0.03755793 Ha           1.02200332 eV
  | Sum of eigenvalues per atom                           :        -377.64669214 eV
  | Total energy (T->0) per atom                          :        -677.09959760 eV  <-- do not rely on this value for anything but (periodic) metals
  | Electronic free energy per atom                       :        -677.09959760 eV

  Self-consistency convergence accuracy:
  | Change of charge density      :  0.2074E+00
  | Change of sum of eigenvalues  :  0.3582E+02 eV
  | Change of total energy        :  0.3651E+00 eV

  End self-consistency iteration #     3       :  max(cpu_time)    wall_clock(cpu1)
  | Time for this iteration                    :        1.173 s           1.174 s
  | Charge density update                      :        0.384 s           0.385 s
  | Density mixing                             :        0.008 s           0.008 s
  | Hartree multipole update                   :        0.009 s           0.009 s
  | Hartree multipole summation                :        0.280 s           0.280 s
  | Integration                                :        0.490 s           0.490 s
  | Solution of K.-S. eqns.                    :        0.002 s           0.002 s
  | Total energy evaluation                    :        0.000 s           0.000 s

  Partial memory accounting:
  | Current value for overall tracked memory usage on task 0  :           0.166 MB
  | Peak value for overall tracked memory usage on task 0     :           0.695 MB after allocating gradient_basis_wave
  | Largest tracked array allocation on task 0 so far         :           0.397 MB  when allocating gradient_basis_wave
  Note:  These values currently only include a subset of arrays which are explicitly tracked.
  The "true" memory usage will be greater.
------------------------------------------------------------

------------------------------------------------------------
          Begin self-consistency iteration #    4

  Date     :  20200815, Time     :  001645.138
------------------------------------------------------------
  Evaluating new KS density.
  Integration grid: deviation in total charge (<rho> - N_e) =  -1.421085E-14
  Pulay mixing of updated and previous charge densities.

  Evaluating partitioned Hartree potential by multipole expansion.
  | Analytical far-field extrapolation by fixed multipoles:
  | Hartree multipole sum: apparent total charge =  -0.446868E-03
  Summing up the Hartree potential.
  Time summed over all CPUs for potential: real work        0.279 s, elapsed        0.279 s
  | RMS charge density error from multipole expansion :   0.251329E-01

  Integrating Hamiltonian matrix: batch-based integration.
  Time summed over all CPUs for integration: real work        0.490 s, elapsed        0.490 s

  Updating Kohn-Sham eigenvalues and eigenvectors using ELSI and the ELPA eigensolver.
  Finished Cholesky decomposition
  | Time :     0.000 s
  Finished transformation to standard eigenproblem
  | Time :     0.000 s
  Starting LAPACK eigensolver
  Finished solving standard eigenproblem
  | Time :     0.002 s
  Finished back-transformation of eigenvectors
  | Time :     0.000 s

  Obtaining occupation numbers and chemical potential using ELSI.
  | Chemical potential (Fermi level):    -2.20431489eV
  Highest occupied state (VBM) at     -5.59973450 eV
  | Occupation number:      2.00000000

  Lowest unoccupied state (CBM) at    -1.41751690 eV
  | Occupation number:      0.00000000

  Overall HOMO-LUMO gap:      4.18221759 eV.

  Total energy components:
  | Sum of eigenvalues            :        -180.25482076 Ha       -4904.98323568 eV
  | XC energy correction          :         -42.66337213 Ha       -1160.92942297 eV
  | XC potential correction       :          54.85045604 Ha        1492.55684931 eV
  | Free-atom electrostatic energy:        -146.86770790 Ha       -3996.47367042 eV
  | Hartree energy correction     :          -8.54194048 Ha        -232.43802679 eV
  | vdW energy correction         :           0.00000000 Ha           0.00000000 eV
  | Entropy correction            :           0.00000000 Ha           0.00000000 eV
  | ---------------------------
  | Total energy                  :        -323.47738523 Ha       -8802.26750655 eV
  | Total energy, T -> 0          :        -323.47738523 Ha       -8802.26750655 eV  <-- do not rely on this value for anything but (periodic) metals
  | Electronic free energy        :        -323.47738523 Ha       -8802.26750655 eV

  Derived energy quantities:
  | Kinetic energy                :         322.80237061 Ha        8783.89942407 eV
  | Electrostatic energy          :        -603.61638371 Ha      -16425.23750764 eV
  | Energy correction for multipole
  | error in Hartree potential    :           0.04176825 Ha           1.13657191 eV
  | Sum of eigenvalues per atom                           :        -377.30640274 eV
  | Total energy (T->0) per atom                          :        -677.09750050 eV  <-- do not rely on this value for anything but (periodic) metals
  | Electronic free energy per atom                       :        -677.09750050 eV

  Self-consistency convergence accuracy:
  | Change of charge density      :  0.6643E-01
  | Change of sum of eigenvalues  :  0.4424E+01 eV
  | Change of total energy        :  0.2726E-01 eV

  End self-consistency iteration #     4       :  max(cpu_time)    wall_clock(cpu1)
  | Time for this iteration                    :        1.175 s           1.175 s
  | Charge density update                      :        0.384 s           0.384 s
  | Density mixing                             :        0.009 s           0.010 s
  | Hartree multipole update                   :        0.009 s           0.008 s
  | Hartree multipole summation                :        0.280 s           0.280 s
  | Integration                                :        0.490 s           0.491 s
  | Solution of K.-S. eqns.                    :        0.002 s           0.002 s
  | Total energy evaluation                    :        0.000 s           0.000 s

  Partial memory accounting:
  | Current value for overall tracked memory usage on task 0  :           0.166 MB
  | Peak value for overall tracked memory usage on task 0     :           0.696 MB after allocating gradient_basis_wave
  | Largest tracked array allocation on task 0 so far         :           0.397 MB  when allocating gradient_basis_wave
  Note:  These values currently only include a subset of arrays which are explicitly tracked.
  The "true" memory usage will be greater.
------------------------------------------------------------

------------------------------------------------------------
          Begin self-consistency iteration #    5

  Date     :  20200815, Time     :  001646.314
------------------------------------------------------------
  Evaluating new KS density.
  Integration grid: deviation in total charge (<rho> - N_e) =  -3.552714E-14
  Pulay mixing of updated and previous charge densities.

  Evaluating partitioned Hartree potential by multipole expansion.
  | Analytical far-field extrapolation by fixed multipoles:
  | Hartree multipole sum: apparent total charge =  -0.440685E-03
  Summing up the Hartree potential.
  Time summed over all CPUs for potential: real work        0.280 s, elapsed        0.280 s
  | RMS charge density error from multipole expansion :   0.249260E-01

  Integrating Hamiltonian matrix: batch-based integration.
  Time summed over all CPUs for integration: real work        0.490 s, elapsed        0.490 s

  Updating Kohn-Sham eigenvalues and eigenvectors using ELSI and the ELPA eigensolver.
  Finished Cholesky decomposition
  | Time :     0.000 s
  Finished transformation to standard eigenproblem
  | Time :     0.000 s
  Starting LAPACK eigensolver
  Finished solving standard eigenproblem
  | Time :     0.002 s
  Finished back-transformation of eigenvectors
  | Time :     0.000 s

  Obtaining occupation numbers and chemical potential using ELSI.
  | Chemical potential (Fermi level):    -2.28864279eV
  Highest occupied state (VBM) at     -5.69318693 eV
  | Occupation number:      2.00000000

  Lowest unoccupied state (CBM) at    -1.52293569 eV
  | Occupation number:      0.00000000

  Overall HOMO-LUMO gap:      4.17025124 eV.

  Total energy components:
  | Sum of eigenvalues            :        -180.48200318 Ha       -4911.16518375 eV
  | XC energy correction          :         -42.63629614 Ha       -1160.19264784 eV
  | XC potential correction       :          54.81530382 Ha        1491.60030872 eV
  | Free-atom electrostatic energy:        -146.86770790 Ha       -3996.47367042 eV
  | Hartree energy correction     :          -8.30639002 Ha        -226.02837269 eV
  | vdW energy correction         :           0.00000000 Ha           0.00000000 eV
  | Entropy correction            :           0.00000000 Ha           0.00000000 eV
  | ---------------------------
  | Total energy                  :        -323.47709342 Ha       -8802.25956598 eV
  | Total energy, T -> 0          :        -323.47709342 Ha       -8802.25956598 eV  <-- do not rely on this value for anything but (periodic) metals
  | Electronic free energy        :        -323.47709342 Ha       -8802.25956598 eV

  Derived energy quantities:
  | Kinetic energy                :         322.66475592 Ha        8780.15473805 eV
  | Electrostatic energy          :        -603.50555321 Ha      -16422.22165618 eV
  | Energy correction for multipole
  | error in Hartree potential    :           0.04114277 Ha           1.11955180 eV
  | Sum of eigenvalues per atom                           :        -377.78193721 eV
  | Total energy (T->0) per atom                          :        -677.09688969 eV  <-- do not rely on this value for anything but (periodic) metals
  | Electronic free energy per atom                       :        -677.09688969 eV

  Self-consistency convergence accuracy:
  | Change of charge density      :  0.2023E-01
  | Change of sum of eigenvalues  : -0.6182E+01 eV
  | Change of total energy        :  0.7941E-02 eV

  End self-consistency iteration #     5       :  max(cpu_time)    wall_clock(cpu1)
  | Time for this iteration                    :        1.177 s           1.177 s
  | Charge density update                      :        0.385 s           0.384 s
  | Density mixing                             :        0.011 s           0.011 s
  | Hartree multipole update                   :        0.009 s           0.009 s
  | Hartree multipole summation                :        0.280 s           0.280 s
  | Integration                                :        0.490 s           0.490 s
  | Solution of K.-S. eqns.                    :        0.002 s           0.003 s
  | Total energy evaluation                    :        0.000 s           0.000 s

  Partial memory accounting:
  | Current value for overall tracked memory usage on task 0  :           0.166 MB
  | Peak value for overall tracked memory usage on task 0     :           0.696 MB after allocating gradient_basis_wave
  | Largest tracked array allocation on task 0 so far         :           0.397 MB  when allocating gradient_basis_wave
  Note:  These values currently only include a subset of arrays which are explicitly tracked.
  The "true" memory usage will be greater.
------------------------------------------------------------

------------------------------------------------------------
          Begin self-consistency iteration #    6

  Date     :  20200815, Time     :  001647.491
------------------------------------------------------------
  Evaluating new KS density.
  Integration grid: deviation in total charge (<rho> - N_e) =   2.842171E-14
  Pulay mixing of updated and previous charge densities.

  Evaluating partitioned Hartree potential by multipole expansion.
  | Analytical far-field extrapolation by fixed multipoles:
  | Hartree multipole sum: apparent total charge =  -0.445612E-03
  Summing up the Hartree potential.
  Time summed over all CPUs for potential: real work        0.279 s, elapsed        0.279 s
  | RMS charge density error from multipole expansion :   0.254053E-01

  Integrating Hamiltonian matrix: batch-based integration.
  Time summed over all CPUs for integration: real work        0.490 s, elapsed        0.490 s

  Updating Kohn-Sham eigenvalues and eigenvectors using ELSI and the ELPA eigensolver.
  Finished Cholesky decomposition
  | Time :     0.000 s
  Finished transformation to standard eigenproblem
  | Time :     0.000 s
  Starting LAPACK eigensolver
  Finished solving standard eigenproblem
  | Time :     0.001 s
  Finished back-transformation of eigenvectors
  | Time :     0.000 s

  Obtaining occupation numbers and chemical potential using ELSI.
  | Chemical potential (Fermi level):    -2.27443733eV
  Highest occupied state (VBM) at     -5.64608113 eV
  | Occupation number:      2.00000000

  Lowest unoccupied state (CBM) at    -1.51816955 eV
  | Occupation number:      0.00000000

  Overall HOMO-LUMO gap:      4.12791158 eV.

  Total energy components:
  | Sum of eigenvalues            :        -180.44151876 Ha       -4910.06354667 eV
  | XC energy correction          :         -42.64007296 Ha       -1160.29542041 eV
  | XC potential correction       :          54.82018800 Ha        1491.73321394 eV
  | Free-atom electrostatic energy:        -146.86770790 Ha       -3996.47367042 eV
  | Hartree energy correction     :          -8.34794590 Ha        -227.15916569 eV
  | vdW energy correction         :           0.00000000 Ha           0.00000000 eV
  | Entropy correction            :           0.00000000 Ha           0.00000000 eV
  | ---------------------------
  | Total energy                  :        -323.47705753 Ha       -8802.25858926 eV
  | Total energy, T -> 0          :        -323.47705753 Ha       -8802.25858926 eV  <-- do not rely on this value for anything but (periodic) metals
  | Electronic free energy        :        -323.47705753 Ha       -8802.25858926 eV

  Derived energy quantities:
  | Kinetic energy                :         322.60562053 Ha        8778.54558217 eV
  | Electrostatic energy          :        -603.44260510 Ha      -16420.50875101 eV
  | Energy correction for multipole
  | error in Hartree potential    :           0.04166365 Ha           1.13372553 eV
  | Sum of eigenvalues per atom                           :        -377.69719590 eV
  | Total energy (T->0) per atom                          :        -677.09681456 eV  <-- do not rely on this value for anything but (periodic) metals
  | Electronic free energy per atom                       :        -677.09681456 eV

  Self-consistency convergence accuracy:
  | Change of charge density      :  0.1043E-01
  | Change of sum of eigenvalues  :  0.1102E+01 eV
  | Change of total energy        :  0.9767E-03 eV

  End self-consistency iteration #     6       :  max(cpu_time)    wall_clock(cpu1)
  | Time for this iteration                    :        1.177 s           1.178 s
  | Charge density update                      :        0.385 s           0.385 s
  | Density mixing                             :        0.012 s           0.012 s
  | Hartree multipole update                   :        0.009 s           0.009 s
  | Hartree multipole summation                :        0.280 s           0.280 s
  | Integration                                :        0.490 s           0.490 s
  | Solution of K.-S. eqns.                    :        0.002 s           0.002 s
  | Total energy evaluation                    :        0.000 s           0.000 s

  Partial memory accounting:
  | Current value for overall tracked memory usage on task 0  :           0.166 MB
  | Peak value for overall tracked memory usage on task 0     :           0.696 MB after allocating gradient_basis_wave
  | Largest tracked array allocation on task 0 so far         :           0.397 MB  when allocating gradient_basis_wave
  Note:  These values currently only include a subset of arrays which are explicitly tracked.
  The "true" memory usage will be greater.
------------------------------------------------------------

------------------------------------------------------------
          Begin self-consistency iteration #    7

  Date     :  20200815, Time     :  001648.670
------------------------------------------------------------
  Evaluating new KS density.
  Integration grid: deviation in total charge (<rho> - N_e) =   7.105427E-15
  Pulay mixing of updated and previous charge densities.

  Evaluating partitioned Hartree potential by multipole expansion.
  | Analytical far-field extrapolation by fixed multipoles:
  | Hartree multipole sum: apparent total charge =  -0.446073E-03
  Summing up the Hartree potential.
  Time summed over all CPUs for potential: real work        0.279 s, elapsed        0.279 s
  | RMS charge density error from multipole expansion :   0.254895E-01

  Integrating Hamiltonian matrix: batch-based integration.
  Time summed over all CPUs for integration: real work        0.491 s, elapsed        0.491 s

  Updating Kohn-Sham eigenvalues and eigenvectors using ELSI and the ELPA eigensolver.
  Finished Cholesky decomposition
  | Time :     0.000 s
  Finished transformation to standard eigenproblem
  | Time :     0.000 s
  Starting LAPACK eigensolver
  Finished solving standard eigenproblem
  | Time :     0.002 s
  Finished back-transformation of eigenvectors
  | Time :     0.000 s

[...]
  |   Hirshfeld dipole moment :      0.05843322
  |   Hirshfeld second moments:      0.01596723      -0.03062559      -0.01877885
  |                                 -0.03062559      -0.02355837       0.00668058
  |                                 -0.01877885       0.00668058      -0.01825610
  ----------------------------------------------------------------------
  | Atom    12: O
  |   Hirshfeld charge        :     -0.17298766
  |   Free atom volume        :     23.61338643
  |   Hirshfeld volume        :     21.09885751
  |   Hirshfeld dipole vector :      0.00334523       0.03557757       0.02312142
  |   Hirshfeld dipole moment :      0.04256235
  |   Hirshfeld second moments:      0.11133157       0.00434642      -0.01452496
  |                                  0.00434642       0.02460546       0.01481418
  |                                 -0.01452496       0.01481418       0.01676007
  ----------------------------------------------------------------------
  | Atom    13: H
  |   Hirshfeld charge        :      0.18639506
  |   Free atom volume        :      9.95071624
  |   Hirshfeld volume        :      6.24305468
  |   Hirshfeld dipole vector :     -0.12290863       0.02918704       0.03674217
  |   Hirshfeld dipole moment :      0.13156140
  |   Hirshfeld second moments:      0.12556276       0.00545512      -0.00268014
  |                                  0.00545512       0.11336636       0.00924620
  |                                 -0.00268014       0.00924620       0.10375573
  ----------------------------------------------------------------------


  Total energy components:
  | Sum of eigenvalues            :        -180.44753645 Ha       -4910.22729646 eV
  | XC energy correction          :         -42.63601088 Ha       -1160.18488556 eV
  | XC potential correction       :          54.81501558 Ha        1491.59246535 eV
  | Free-atom electrostatic energy:        -146.86770790 Ha       -3996.47367042 eV
  | Hartree energy correction     :          -8.34079187 Ha        -226.96449448 eV
  | vdW energy correction         :          -0.00331174 Ha          -0.09011695 eV
  | Entropy correction            :           0.00000000 Ha           0.00000000 eV
  | ---------------------------
  | Total energy                  :        -323.48034326 Ha       -8802.34799852 eV
  | Total energy, T -> 0          :        -323.48034326 Ha       -8802.34799852 eV  <-- do not rely on this value for anything but (periodic) metals
  | Electronic free energy        :        -323.48034326 Ha       -8802.34799852 eV

  Derived energy quantities:
  | Kinetic energy                :         322.56651830 Ha        8777.48155619 eV
  | Electrostatic energy          :        -603.40753894 Ha      -16419.55455220 eV
  | Energy correction for multipole
  | error in Hartree potential    :           0.04168751 Ha           1.13437476 eV
  | Sum of eigenvalues per atom                           :        -377.70979204 eV
  | Total energy (T->0) per atom                          :        -677.10369219 eV  <-- do not rely on this value for anything but (periodic) metals
  | Electronic free energy per atom                       :        -677.10369219 eV

  atomic forces [eV/Ang]:
  -----------------------
  atom #    1
   Hellmann-Feynman              :  0.131608E+01 -0.615656E-01  0.774597E+00
   Ionic forces                  :  0.000000E+00  0.000000E+00  0.000000E+00
   Multipole                     :  0.119345E+00  0.386851E+00 -0.296974E+00
   Pulay + GGA                   : -0.140538E+01  0.102021E-01 -0.115977E+01
   Van der Waals                 :  0.638665E-02  0.498076E-02 -0.222997E-02
   ----------------------------------------------------------------
   Total forces(   1)            :  0.364283E-01  0.340469E+00 -0.684375E+00
  atom #    2
   Hellmann-Feynman              :  0.454032E+00  0.384504E-01  0.367557E+00
   Ionic forces                  :  0.000000E+00  0.000000E+00  0.000000E+00
   Multipole                     :  0.153244E+00  0.380616E-01 -0.322010E-01
   Pulay + GGA                   : -0.125509E+00  0.157804E-01  0.109358E-01
   Van der Waals                 :  0.865126E-02 -0.546416E-02 -0.157523E-02
   ----------------------------------------------------------------
   Total forces(   2)            :  0.490418E+00  0.868282E-01  0.344717E+00
  atom #    3
   Hellmann-Feynman              : -0.115665E+02 -0.404384E+01  0.917063E+00
   Ionic forces                  :  0.000000E+00  0.000000E+00  0.000000E+00
   Multipole                     : -0.131526E+00  0.103978E+00 -0.867935E+00
   Pulay + GGA                   :  0.113822E+02  0.391618E+01  0.852183E+00
   Van der Waals                 :  0.447099E-02 -0.430311E-02 -0.938757E-02
   ----------------------------------------------------------------
   Total forces(   3)            : -0.311410E+00 -0.279890E-01  0.891923E+00
  atom #    4
   Hellmann-Feynman              :  0.286726E+00  0.539417E-01 -0.115943E+00
   Ionic forces                  :  0.000000E+00  0.000000E+00  0.000000E+00
   Multipole                     :  0.951072E-02  0.569778E-01 -0.962673E-01
   Pulay + GGA                   : -0.836115E-01 -0.195806E+00  0.609153E-01
   Van der Waals                 : -0.422788E-02 -0.556126E-02 -0.434543E-02
   ----------------------------------------------------------------
   Total forces(   4)            :  0.208397E+00 -0.904472E-01 -0.155640E+00
  atom #    5
   Hellmann-Feynman              :  0.122744E+00  0.207977E-01 -0.274107E+00
   Ionic forces                  :  0.000000E+00  0.000000E+00  0.000000E+00
   Multipole                     :  0.470632E-01 -0.182378E-01 -0.113440E+00
   Pulay + GGA                   : -0.203034E+00  0.699128E-01  0.119295E+00
   Van der Waals                 : -0.218678E-03  0.638752E-02 -0.528880E-02
   ----------------------------------------------------------------
   Total forces(   5)            : -0.334455E-01  0.788602E-01 -0.273541E+00
  atom #    6
   Hellmann-Feynman              : -0.155611E+00 -0.601706E+00  0.330029E+00
   Ionic forces                  :  0.000000E+00  0.000000E+00  0.000000E+00
   Multipole                     : -0.635343E-01  0.638100E+00  0.242591E+00
   Pulay + GGA                   :  0.347177E+00 -0.536313E+00 -0.519040E+00
   Van der Waals                 : -0.395751E-02  0.186432E-02 -0.316985E-02
   ----------------------------------------------------------------
   Total forces(   6)            :  0.124074E+00 -0.498055E+00  0.504100E-01
  atom #    7
   Hellmann-Feynman              : -0.241208E+00 -0.264488E-01 -0.405462E-01
   Ionic forces                  :  0.000000E+00  0.000000E+00  0.000000E+00
   Multipole                     : -0.118246E+00  0.481126E-01  0.307964E-01
   Pulay + GGA                   :  0.111315E+00  0.909910E-02 -0.187166E-01
   Van der Waals                 : -0.242904E-02  0.603345E-03  0.463972E-02
   ----------------------------------------------------------------
   Total forces(   7)            : -0.250568E+00  0.313663E-01 -0.238267E-01
  atom #    8
   Hellmann-Feynman              :  0.694764E-01 -0.438702E-01  0.119714E+00
   Ionic forces                  :  0.000000E+00  0.000000E+00  0.000000E+00
   Multipole                     :  0.158357E-01  0.689787E-01  0.126549E+00
   Pulay + GGA                   : -0.414006E-01 -0.457633E-01 -0.110647E+00
   Van der Waals                 : -0.287212E-02  0.112995E-01  0.831239E-03
   ----------------------------------------------------------------
   Total forces(   8)            :  0.410394E-01 -0.935533E-02  0.136448E+00
  atom #    9
   Hellmann-Feynman              :  0.104279E+00  0.811780E-01 -0.189542E+00
   Ionic forces                  :  0.000000E+00  0.000000E+00  0.000000E+00
   Multipole                     :  0.234389E-01  0.131693E+00 -0.256975E-02
   Pulay + GGA                   : -0.357510E-01 -0.769122E-01  0.765733E-01
   Van der Waals                 : -0.136836E-02  0.612371E-02  0.793685E-02
   ----------------------------------------------------------------
   Total forces(   9)            :  0.905985E-01  0.142083E+00 -0.107602E+00
  atom #   10
   Hellmann-Feynman              :  0.278079E+01  0.527214E+01  0.161285E+01
   Ionic forces                  :  0.000000E+00  0.000000E+00  0.000000E+00
   Multipole                     :  0.756121E-01 -0.179859E+00  0.353738E+00
   Pulay + GGA                   : -0.832689E+00 -0.328296E+01 -0.438390E+00
   Van der Waals                 :  0.121167E-02 -0.115099E-01  0.287040E-02
   ----------------------------------------------------------------
   Total forces(  10)            :  0.202492E+01  0.179782E+01  0.153107E+01
  atom #   11
   Hellmann-Feynman              :  0.397385E+01 -0.219039E+01  0.137041E+02
   Ionic forces                  :  0.000000E+00  0.000000E+00  0.000000E+00
   Multipole                     :  0.465742E-01 -0.682224E+00  0.800616E+00
   Pulay + GGA                   : -0.312631E+01  0.368426E+01 -0.134234E+02
   Van der Waals                 : -0.989972E-03 -0.119629E-01  0.361814E-02
   ----------------------------------------------------------------
   Total forces(  11)            :  0.893120E+00  0.799687E+00  0.108492E+01
  atom #   12
   Hellmann-Feynman              :  0.191993E+01 -0.112078E+02 -0.112080E+02
   Ionic forces                  :  0.000000E+00  0.000000E+00  0.000000E+00
   Multipole                     : -0.633792E+00 -0.137659E+01 -0.473178E+00
   Pulay + GGA                   : -0.374802E+01  0.106878E+02  0.941751E+01
   Van der Waals                 : -0.138381E-02  0.483868E-02  0.653559E-02
   ----------------------------------------------------------------
   Total forces(  12)            : -0.246326E+01 -0.189170E+01 -0.225714E+01
  atom #   13
   Hellmann-Feynman              : -0.117290E+01 -0.615817E+00 -0.398805E+00
   Ionic forces                  :  0.000000E+00  0.000000E+00  0.000000E+00
   Multipole                     : -0.508724E-01  0.154648E-01  0.751984E-02
   Pulay + GGA                   :  0.372923E+00 -0.161730E+00 -0.147959E+00
   Van der Waals                 : -0.327321E-02  0.270353E-02 -0.435082E-03
   ----------------------------------------------------------------
   Total forces(  13)            : -0.854124E+00 -0.759379E+00 -0.539680E+00

  Timings for VdW correction (Tkatchenko-Scheffler 2009 or later):
  | CPU time:        0.088 s, Wall clock time:        0.089 s.
  Removing unitary transformations (pure translations, rotations) from forces on atoms.
  Atomic forces before filtering:
  | Net force on center of mass :  -0.381225E-02  0.181557E-03 -0.231940E-02 eV/A
  | Net torque on center of mass:  -0.695087E-02  0.581010E-03 -0.587145E-02 eV
  Atomic forces after filtering:
  | Net force on center of mass :  -0.178406E-15  0.446015E-15  0.178406E-15 eV/A
  | Net torque on center of mass:  -0.708063E-16  0.283225E-15  0.944085E-15 eV

  Energy and forces in a compact form:
  | Total energy uncorrected      :         -0.880234799852321E+04 eV
  | Total energy corrected        :         -0.880234799852321E+04 eV  <-- do not rely on this value for anything but (periodic) metals
  | Electronic free energy        :         -0.880234799852321E+04 eV
  Total atomic forces (unitary forces cleaned) [eV/Ang]:
  |   1          0.367153184618164E-01          0.340553562338009E+00         -0.684186349187640E+00
  |   2          0.490705388049210E+00          0.871177662094481E-01          0.344915440481688E+00
  |   3         -0.311110088063898E+00         -0.277591912369837E-01          0.892107810807710E+00
  |   4          0.208520831086656E+00         -0.901553888482033E-01         -0.155296461247053E+00
  |   5         -0.330298997012451E-01          0.792974173436007E-01         -0.273449202008188E+00
  |   6          0.124118096313886E+00         -0.498183444737168E+00          0.508038573776640E-01
  |   7         -0.250529295944256E+00          0.310303722709463E-01         -0.234382363957605E-01
  |   8          0.410718538757763E-01         -0.958780198208659E-02          0.136846718534495E+00
  |   9          0.904790451667741E-01          0.142105600043301E+00         -0.107055070516836E+00
  |  10          0.202544622363612E+01          0.179770399790422E+01          0.153104210910106E+01
  |  11          0.893682399360722E+00          0.799439854498963E+00          0.108484656704865E+01
  |  12         -0.246257784454006E+01         -0.189183549580340E+01         -0.225731906551303E+01
  |  13         -0.853492027701504E+00         -0.759727248000646E+00         -0.539818118482757E+00

  ------------------------------------ 
  Start decomposition of the XC Energy 
  ------------------------------------ 
  X and C from original XC functional choice 
  Hartree-Fock Energy :          0.000000000 Ha              0.000000000 eV
  X Energy            :        -41.036118218 Ha          -1116.649591215 eV
  C Energy            :         -1.599892661 Ha            -43.535294350 eV
  Total XC Energy     :        -42.636010879 Ha          -1160.184885564 eV
  ------------------------------------ 
  LDA X and C from self-consistent density 
  X Energy LDA        :        -37.253785454 Ha          -1013.727080062 eV
  C Energy LDA        :         -3.138371700 Ha            -85.399439033 eV
  ------------------------------------ 
  End decomposition of the XC Energy 
  ------------------------------------ 

------------------------------------------------------------

------------------------------------------------------------------------------
  Final output of selected total energy values:

  The following output summarizes some interesting total energy values
  at the end of a run (AFTER all relaxation, molecular dynamics, etc.).

  | Total energy of the DFT / Hartree-Fock s.c.f. calculation      :          -8802.347998523 eV
  | Final zero-broadening corrected energy (caution - metals only) :          -8802.347998523 eV
  | For reference only, the value of 1 Hartree used in FHI-aims is :             27.211384500 eV

  Before relying on these values, please be sure to understand exactly which
  total energy value is referred to by a given number. Different objects may
  all carry the same name 'total energy'. Definitions:

  Total energy of the DFT / Hartree-Fock s.c.f. calculation:
  | Note that this energy does not include ANY quantities calculated after the
  | s.c.f. cycle, in particular not ANY RPA, MP2, etc. many-body perturbation terms.

  Final zero-broadening corrected energy:
  | For metallic systems only, a broadening of the occupation numbers at the Fermi
  | level can be extrapolated back to zero broadening by an electron-gas inspired
  | formula. For all systems that are not real metals, this value can be
  | meaningless and should be avoided.

------------------------------------------------------------------------------
  Methods described in the following list of references were used in this FHI-aims run.
  If you publish the results, please make sure to cite these reference if they apply.
  FHI-aims is an academic code, and for our developers (often, Ph.D. students
  and postdocs), scientific credit in the community is essential.
  Thank you for helping us!

  For any use of FHI-aims, please cite:

    Volker Blum, Ralf Gehrke, Felix Hanke, Paula Havu, Ville Havu,
    Xinguo Ren, Karsten Reuter, and Matthias Scheffler
    'Ab initio molecular simulations with numeric atom-centered orbitals'
    Computer Physics Communications 180, 2175-2196 (2009)
    http://dx.doi.org/10.1016/j.cpc.2009.06.022


  The scalable eigensolver library ELPA was used in your run.
  ELPA is essential especially for large systems on hundreds or thousands of CPUs.
  For ELPA, please cite:

    Andreas Marek, Volker Blum, Rainer Johanni, Ville Havu, Bruno Lang,
    Thomas Auckenthaler, Alexander Heinecke, Hans-Joachim Bungartz, and Hermann Lederer,
    'The ELPA Library - Scalable Parallel Eigenvalue Solutions
    for Electronic Structure Theory and Computational Science'
    The Journal of Physics: Condensed Matter 26, 213201 (2014).
    http://dx.doi.org/10.1088/0953-8984/26/21/213201


  The ELSI infrastructure was used in your run to solve the Kohn-Sham electronic structure.
  Please check out http://elsi-interchange.org to learn more.
  If scalability is important for your project, please acknowledge ELSI by citing:

    V. W-z. Yu, F. Corsetti, A. Garcia, W. P. Huhn, M. Jacquelin, W. Jia,
    B. Lange, L. Lin, J. Lu, W. Mi, A. Seifitokaldani, A. Vazquez-Mayagoitia,
    C. Yang, H. Yang, and V. Blum
    'ELSI: A unified software interface for Kohn-Sham electronic structure solvers'
    Computer Physics Communications 222, 267-285 (2018).
    http://dx.doi.org/10.1016/j.cpc.2017.09.007


  For the real-space grid partitioning and parallelization used in this calculation, please cite:

    Ville Havu, Volker Blum, Paula Havu, and Matthias Scheffler,
    'Efficient O(N) integration for all-electron electronic structure calculation'
    'using numerically tabulated basis functions'
    Journal of Computational Physics 228, 8367-8379 (2009).
    http://dx.doi.org/10.1016/j.jcp.2009.08.008

  Of course, there are many other important community references, e.g., those cited in the
  above references. Our list is limited to references that describe implementations in the
  FHI-aims code. The reason is purely practical (length of this list) - please credit others as well.

------------------------------------------------------------
          Leaving FHI-aims.
          Date     :  20200815, Time     :  001702.857

          Computational steps:
          | Number of self-consistency cycles          :           16
          | Number of SCF (re)initializations          :            1

          Detailed time accounting                     :  max(cpu_time)    wall_clock(cpu1)
          | Total time                                 :       22.506 s          22.550 s
          | Preparation time                           :        0.144 s           0.145 s
          | Boundary condition initalization           :        0.000 s           0.000 s
          | Grid partitioning                          :        0.109 s           0.109 s
          | Preloading free-atom quantities on grid    :        0.002 s           0.002 s
          | Free-atom superposition energy             :        0.084 s           0.084 s
          | Total time for integrations                :        8.544 s           8.546 s
          | Total time for solution of K.-S. equations :        0.036 s           0.038 s
          | Total time for density & force components  :        7.104 s           7.114 s
          | Total time for mixing                      :        0.210 s           0.214 s
          | Total time for Hartree multipole update    :        0.141 s           0.143 s
          | Total time for Hartree multipole sum       :        5.738 s           5.746 s
          | Total time for total energy evaluation     :        0.003 s           0.002 s
          | Total time for vdW correction              :        0.088 s           0.089 s

          Partial memory accounting:
          | Residual value for overall tracked memory usage across tasks :           0.000 MB (should be 0.000 MB)
          | Peak values for overall tracked memory usage (after allocating hessian_basis_wave):
          |   Minimum:        1.622 MB (on task 1)
          |   Maximum:        1.622 MB (on task 1)
          |   Average:        1.622 MB
          | Largest tracked array allocation (hessian_basis_wave):
          |   Minimum:        0.794 MB (on task 1)
          |   Maximum:        0.794 MB (on task 1)
          |   Average:        0.794 MB
          Note:  These values currently only include a subset of arrays which are explicitly tracked.
          The "true" memory usage will be greater.

          Have a nice day.
------------------------------------------------------------
