  MPI-parallelism will be employed.
------------------------------------------------------------
          Invoking FHI-aims ...
          Version 171221_1
          Compiled on 2019/09/09 at 14:39:39 on host puhti-login2.bullx.

          When using FHI-aims, please cite the following reference:

          Volker Blum, Ralf Gehrke, Felix Hanke, Paula Havu,
          Ville Havu, Xinguo Ren, Karsten Reuter, and Matthias Scheffler,
          'Ab Initio Molecular Simulations with Numeric Atom-Centered Orbitals',
          Computer Physics Communications 180, 2175-2196 (2009)

          For any questions about FHI-aims, please visit the aimsclub website
          with its forums and wiki. Contributions to both the forums and the
          wiki are warmly encouraged - they are for you, and everyone is welcome there.

------------------------------------------------------------



  Date     :  20200815, Time     :  003954.801
  Time zero on CPU 1             :   0.356980000000000E-01  s.
  Internal wall clock time zero  :           366683994.801  s.

  FHI-aims created a unique identifier for this run for later identification
  aims_uuid : 0BC092F7-897E-4AF8-AD8F-E938012E66B0

  Using        1 parallel tasks.
  Task        0 on host r18c47.bullx reporting.

  Performing system and environment tests:
  | Environment variable OMP_NUM_THREADS correctly set to 1.
  | Stacksize not measured: no C compiler
  | Checking for scalapack...
  | Testing pdtran()...
  | All pdtran() tests passed.

  Obtaining array dimensions for all initial allocations:
  
  -----------------------------------------------------------------------
  Parsing control.in (first pass over file, find array dimensions only).
  The contents of control.in will be repeated verbatim below
  unless switched off by setting 'verbatim_writeout .false.' .
  in the first line of control.in .
  -----------------------------------------------------------------------
  
  #########################################################################################
  #
  #  Volker Blum, FHI 2009 : Test run input file control.in for simple H2O
  #
  #########################################################################################
  #
  #  Physical model
  #
    xc                 pbe
    vdw_correction_hirshfeld
    spin               none
    relativistic       none
    charge             0.
  #
  #  SCF convergence
  #
    occupation_type    gaussian 0.01
    mixer              pulay
      n_max_pulay        10
      charge_mix_param   0.2
    sc_accuracy_rho    1E-5
    sc_accuracy_eev    1E-3
    sc_accuracy_etot   1E-6
    sc_accuracy_forces 1E-4
    sc_iter_limit      100
  #
  #  Relaxation
  #
  #  relax_geometry   bfgs 1.e-3
  #
  ################################################################################
  #
  #  FHI-aims code project
  #  VB, Fritz-Haber Institut, 2009
  #
  #  Suggested "light" defaults for H atom (to be pasted into control.in file)
  #  Be sure to double-check any results obtained with these settings for post-processing,
  #  e.g., with the "tight" defaults and larger basis sets.
  #
  ################################################################################
    species        H
  #     global species definitions
      nucleus             1
      mass                1.00794
  #
      l_hartree           4
  #
      cut_pot             3.5  1.5  1.0
      basis_dep_cutoff    1e-4
  #
      radial_base         24 5.0
      radial_multiplier   1
      angular_grids       specified
        division   0.2421   50
        division   0.3822  110
        division   0.4799  194
        division   0.5341  302
  #      division   0.5626  434
  #      division   0.5922  590
  #      division   0.6542  770
  #      division   0.6868 1202
  #      outer_grid  770
        outer_grid  302
  ################################################################################
  #
  #  Definition of "minimal" basis
  #
  ################################################################################
  #     valence basis states
      valence      1  s   1.
  #     ion occupancy
      ion_occ      1  s   0.5
  ################################################################################
  #
  #  Suggested additional basis functions. For production calculations,
  #  uncomment them one after another (the most important basis functions are
  #  listed first).
  #
  #  Basis constructed for dimers: 0.5 A, 0.7 A, 1.0 A, 1.5 A, 2.5 A
  #
  ################################################################################
  #  "First tier" - improvements: -1014.90 meV to -62.69 meV
       hydro 2 s 2.1
       hydro 2 p 3.5
  #  "Second tier" - improvements: -12.89 meV to -1.83 meV
  #     hydro 1 s 0.85
  #     hydro 2 p 3.7
  #     hydro 2 s 1.2
  #     hydro 3 d 7
  #  "Third tier" - improvements: -0.25 meV to -0.12 meV
  #     hydro 4 f 11.2
  #     hydro 3 p 4.8
  #     hydro 4 d 9
  #     hydro 3 s 3.2
  ################################################################################
  #
  #  FHI-aims code project
  #  VB, Fritz-Haber Institut, 2009
  #
  #  Suggested "light" defaults for C atom (to be pasted into control.in file)
  #  Be sure to double-check any results obtained with these settings for post-processing,
  #  e.g., with the "tight" defaults and larger basis sets.
  #
  ################################################################################
    species        C
  #     global species definitions
      nucleus             6
      mass                12.0107
  #
      l_hartree           4
  #
      cut_pot             3.5  1.5  1.0
      basis_dep_cutoff    1e-4
  #
      radial_base         34 5.0
      radial_multiplier   1
      angular_grids specified
        division   0.3326   50
        division   0.5710  110
        division   0.7727  194
        division   0.8772  302
  #      division   0.9334  434
  #      division   0.9625  590
  #      division   0.9924  770
  #      division   1.0230  974
  #      division   1.4589 1202
  #     outer_grid  974
       outer_grid 302
  ################################################################################
  #
  #  Definition of "minimal" basis
  #
  ################################################################################
  #     valence basis states
      valence      2  s   2.
      valence      2  p   2.
  #     ion occupancy
      ion_occ      2  s   1.
      ion_occ      2  p   1.
  ################################################################################
  #
  #  Suggested additional basis functions. For production calculations,
  #  uncomment them one after another (the most important basis functions are
  #  listed first).
  #
  #  Constructed for dimers: 1.0 A, 1.25 A, 1.5 A, 2.0 A, 3.0 A
  #
  ################################################################################
  #  "First tier" - improvements: -1214.57 meV to -155.61 meV
       hydro 2 p 1.7
       hydro 3 d 6
       hydro 2 s 4.9
  #  "Second tier" - improvements: -67.75 meV to -5.23 meV
  #     hydro 4 f 9.8
  #     hydro 3 p 5.2
  #     hydro 3 s 4.3
  #     hydro 5 g 14.4
  #     hydro 3 d 6.2
  #  "Third tier" - improvements: -2.43 meV to -0.60 meV
  #     hydro 2 p 5.6
  #     hydro 2 s 1.4
  #     hydro 3 d 4.9
  #     hydro 4 f 11.2
  #  "Fourth tier" - improvements: -0.39 meV to -0.18 meV
  #     hydro 2 p 2.1
  #     hydro 5 g 16.4
  #     hydro 4 d 13.2
  #     hydro 3 s 13.6
  #     hydro 4 f 17.6
  #  Further basis functions - improvements: -0.08 meV and below
  #     hydro 3 s 2
  #     hydro 3 p 6
  #     hydro 4 d 20
  ################################################################################
  #
  #  FHI-aims code project
  #  VB, Fritz-Haber Institut, 2009
  #
  #  Suggested "light" defaults for N atom (to be pasted into control.in file)
  #  Be sure to double-check any results obtained with these settings for post-processing,
  #  e.g., with the "tight" defaults and larger basis sets.
  #
  ################################################################################
    species        N
  #     global species definitions
      nucleus             7
      mass                14.0067
  #
      l_hartree           4
  #
      cut_pot             3.5  1.5  1.0
      basis_dep_cutoff    1e-4
  #
      radial_base         35 5.0
      radial_multiplier   1
      angular_grids       specified
        division   0.2599   50
        division   0.4601  110
        division   0.5885  194
        division   0.6503  302
  #      division   0.6939  434
  #      division   0.7396  590
  #      division   0.7632  770
  #      division   0.8122  974
  #      division   1.1604 1202
  #      outer_grid  974
        outer_grid  302
  ################################################################################
  #
  #  Definition of "minimal" basis
  #
  ################################################################################
  #     valence basis states
      valence      2  s   2.
      valence      2  p   3.
  #     ion occupancy
      ion_occ      2  s   1.
      ion_occ      2  p   2.
  ################################################################################
  #
  #  Suggested additional basis functions. For production calculations,
  #  uncomment them one after another (the most important basis functions are
  #  listed first).
  #
  #  Constructed for dimers: 1.0 A, 1.1 A, 1.5 A, 2.0 A, 3.0 A
  #
  ################################################################################
  #  "First tier" - improvements: -1193.42 meV to -220.60 meV
       hydro 2 p 1.8
       hydro 3 d 6.8
       hydro 3 s 5.8
  #  "Second tier" - improvements: -80.21 meV to -6.86 meV
  #     hydro 4 f 10.8
  #     hydro 3 p 5.8
  #     hydro 1 s 0.8
  #     hydro 5 g 16
  #     hydro 3 d 4.9
  #  "Third tier" - improvements: -4.29 meV to -0.53 meV
  #     hydro 3 s 16
  #     ionic 2 p auto
  #     hydro 3 d 6.6
  #     hydro 4 f 11.6
  #  "Fourth tier" - improvements: -0.75 meV to -0.25 meV
  #     hydro 2 p 4.5
  #     hydro 2 s 2.4
  #     hydro 5 g 14.4
  #     hydro 4 d 14.4
  #     hydro 4 f 16.8
  # Further basis functions - -0.21 meV and below
  #     hydro 3 p 14.8
  #     hydro 3 s 4.4
  #     hydro 3 d 19.6
  #     hydro 5 g 12.8
  ################################################################################
  #
  #  FHI-aims code project
  #  VB, Fritz-Haber Institut, 2009
  #
  #  Suggested "light" defaults for O atom (to be pasted into control.in file)
  #  Be sure to double-check any results obtained with these settings for post-processing,
  #  e.g., with the "tight" defaults and larger basis sets.
  #
  ################################################################################
    species        O
  #     global species definitions
      nucleus             8
      mass                15.9994
  #
      l_hartree           4
  #
      cut_pot             3.5  1.5  1.0
      basis_dep_cutoff    1e-4
  #
      radial_base         36 5.0
      radial_multiplier   1
       angular_grids specified
        division   0.2659   50
        division   0.4451  110
        division   0.6052  194
        division   0.7543  302
  #      division   0.8014  434
  #      division   0.8507  590
  #      division   0.8762  770
  #      division   0.9023  974
  #      division   1.2339 1202
  #      outer_grid 974
        outer_grid 302
  ################################################################################
  #
  #  Definition of "minimal" basis
  #
  ################################################################################
  #     valence basis states
      valence      2  s   2.
      valence      2  p   4.
  #     ion occupancy
      ion_occ      2  s   1.
      ion_occ      2  p   3.
  ################################################################################
  #
  #  Suggested additional basis functions. For production calculations,
  #  uncomment them one after another (the most important basis functions are
  #  listed first).
  #
  #  Constructed for dimers: 1.0 A, 1.208 A, 1.5 A, 2.0 A, 3.0 A
  #
  ################################################################################
  #  "First tier" - improvements: -699.05 meV to -159.38 meV
       hydro 2 p 1.8
       hydro 3 d 7.6
       hydro 3 s 6.4
  #  "Second tier" - improvements: -49.91 meV to -5.39 meV
  #     hydro 4 f 11.6
  #     hydro 3 p 6.2
  #     hydro 3 d 5.6
  #     hydro 5 g 17.6
  #     hydro 1 s 0.75
  #  "Third tier" - improvements: -2.83 meV to -0.50 meV
  #     ionic 2 p auto
  #     hydro 4 f 10.8
  #     hydro 4 d 4.7
  #     hydro 2 s 6.8
  #  "Fourth tier" - improvements: -0.40 meV to -0.12 meV
  #     hydro 3 p 5
  #     hydro 3 s 3.3
  #     hydro 5 g 15.6
  #     hydro 4 f 17.6
  #     hydro 4 d 14
  # Further basis functions - -0.08 meV and below
  #     hydro 3 s 2.1
  #     hydro 4 d 11.6
  #     hydro 3 p 16
  #     hydro 2 s 17.2
  
  -----------------------------------------------------------------------
  Completed first pass over input file control.in .
  -----------------------------------------------------------------------
  
  
  -----------------------------------------------------------------------
  Parsing geometry.in (first pass over file, find array dimensions only).
  The contents of geometry.in will be repeated verbatim below
  unless switched off by setting 'verbatim_writeout .false.' .
  in the first line of geometry.in .
  -----------------------------------------------------------------------
  
  atom  0.00000 0.00000 0.00000 C
  atom  1.09300 0.00000 0.00000 H
  atom  -0.47961 0.00000 -1.41207 N
  atom  -0.28850 0.91484 -1.82242 H
  atom  0.01551 -0.72625 -1.92544 H
  atom  -0.49584 1.26211 0.72868 C
  atom  -1.58789 1.28919 0.74431 H
  atom  -0.13407 1.27425 1.75947 H
  atom  -0.13407 2.16087 0.22380 H
  atom  -0.39425 -1.28861 0.74398 C
  atom  -0.10189 -1.56493 1.88303 O
  atom  -1.10210 -2.13717 0.06896 O
  atom  -1.70518 -1.50800 -0.36164 H
  
  -----------------------------------------------------------------------
  Completed first pass over input file geometry.in .
  -----------------------------------------------------------------------
  

  Basic array size parameters:
  | Number of species                 :        4
  | Number of atoms                   :       13
  | Max. basis fn. angular momentum   :        2
  | Max. atomic/ionic basis occupied n:        2
  | Max. number of basis fn. types    :        2
  | Max. radial fns per species/type  :        3
  | Max. logarithmic grid size        :     1301
  | Max. radial integration grid size :       36
  | Max. angular integration grid size:      302
  | Max. angular grid division number :        8
  | Radial grid for Hartree potential :     1301
  | Number of spin channels           :        1

------------------------------------------------------------
          Reading file control.in.
------------------------------------------------------------
  XC: Using PBE gradient-corrected functionals.
  Spin treatment: No spin polarisation.
  Non-relativistic treatment of kinetic energy.
  Charge =   0.000000E+00: Neutral system requested explicitly.
  Occupation type: Gaussian broadening, width =   0.100000E-01 eV.
  Using pulay charge density mixing.
  Pulay mixing - number of memorized iterations:   10
  Charge density mixing - mixing parameter:     0.2000
  Convergence accuracy of self-consistent charge density:  0.1000E-04
  Convergence accuracy of sum of eigenvalues:  0.1000E-02
  Convergence accuracy of total energy:  0.1000E-05
  Convergence accuracy of forces:  0.1000E-03
  Maximum number of s.-c. iterations  :   100
 
  Reading configuration options for species H                   .
  | Found nuclear charge :   1.0000
  | Found atomic mass :    1.00794000000000      amu
  | Found l_max for Hartree potential  :   4
  | Found cutoff potl. onset [A], width [A], scale factor :    3.50000    1.50000    1.00000
  | Threshold for basis-dependent cutoff potential is   0.100000E-03
  | Found data for basic radial integration grid :    24 points, outermost radius =    5.000 A
  | Found multiplier for basic radial grid :   1
  | Found angular grid specification: user-specified.
  | Specified grid contains     5 separate shells.
  | Check grid settings after all constraints further below.
  | Found free-atom valence shell :  1 s   1.000
  | No ionic wave fns used. Skipping ion_occ.
  | Found hydrogenic basis function :  2 s   2.100
  | Found hydrogenic basis function :  2 p   3.500
  Species H                   : Missing cutoff potential type.
  Defaulting to exp(1/x)/(1-x)^2 type cutoff potential.
  Species H : No 'logarithmic' tag. Using default grid for free atom:
  | Default logarithmic grid data [bohr] : 0.1000E-03 0.1000E+03 0.1012E+01
  Species H : On-site basis accuracy parameter (for Gram-Schmidt orthonormalisation) not specified.
  Using default value basis_acc =  0.1000000E-03.
  Species H                   : Using default innermost maximum threshold i_radial=  2 for radial functions.
  Species H                   : Default cutoff onset for free atom density etc. : 0.35000000E+01 AA.
  Species H                   : Basic radial grid will be enhanced according to radial_multiplier =   1, to contain    24 grid points.
 
  Reading configuration options for species C                   .
  | Found nuclear charge :   6.0000
  | Found atomic mass :    12.0107000000000      amu
  | Found l_max for Hartree potential  :   4
  | Found cutoff potl. onset [A], width [A], scale factor :    3.50000    1.50000    1.00000
  | Threshold for basis-dependent cutoff potential is   0.100000E-03
  | Found data for basic radial integration grid :    34 points, outermost radius =    5.000 A
  | Found multiplier for basic radial grid :   1
  | Found angular grid specification: user-specified.
  | Specified grid contains     5 separate shells.
  | Check grid settings after all constraints further below.
  | Found free-atom valence shell :  2 s   2.000
  | Found free-atom valence shell :  2 p   2.000
  | No ionic wave fns used. Skipping ion_occ.
  | No ionic wave fns used. Skipping ion_occ.
  | Found hydrogenic basis function :  2 p   1.700
  | Found hydrogenic basis function :  3 d   6.000
  | Found hydrogenic basis function :  2 s   4.900
  Species C                   : Missing cutoff potential type.
  Defaulting to exp(1/x)/(1-x)^2 type cutoff potential.
  Species C : No 'logarithmic' tag. Using default grid for free atom:
  | Default logarithmic grid data [bohr] : 0.1000E-03 0.1000E+03 0.1012E+01
  Species C : On-site basis accuracy parameter (for Gram-Schmidt orthonormalisation) not specified.
  Using default value basis_acc =  0.1000000E-03.
  Species C                   : Using default innermost maximum threshold i_radial=  2 for radial functions.
  Species C                   : Default cutoff onset for free atom density etc. : 0.35000000E+01 AA.
  Species C                   : Basic radial grid will be enhanced according to radial_multiplier =   1, to contain    34 grid points.
 
  Reading configuration options for species N                   .
  | Found nuclear charge :   7.0000
  | Found atomic mass :    14.0067000000000      amu
  | Found l_max for Hartree potential  :   4
  | Found cutoff potl. onset [A], width [A], scale factor :    3.50000    1.50000    1.00000
  | Threshold for basis-dependent cutoff potential is   0.100000E-03
  | Found data for basic radial integration grid :    35 points, outermost radius =    5.000 A
  | Found multiplier for basic radial grid :   1
  | Found angular grid specification: user-specified.
  | Specified grid contains     5 separate shells.
  | Check grid settings after all constraints further below.
  | Found free-atom valence shell :  2 s   2.000
  | Found free-atom valence shell :  2 p   3.000
  | No ionic wave fns used. Skipping ion_occ.
  | No ionic wave fns used. Skipping ion_occ.
  | Found hydrogenic basis function :  2 p   1.800
  | Found hydrogenic basis function :  3 d   6.800
  | Found hydrogenic basis function :  3 s   5.800
  Species N                   : Missing cutoff potential type.
  Defaulting to exp(1/x)/(1-x)^2 type cutoff potential.
  Species N : No 'logarithmic' tag. Using default grid for free atom:
  | Default logarithmic grid data [bohr] : 0.1000E-03 0.1000E+03 0.1012E+01
  Species N : On-site basis accuracy parameter (for Gram-Schmidt orthonormalisation) not specified.
  Using default value basis_acc =  0.1000000E-03.
  Species N                   : Using default innermost maximum threshold i_radial=  2 for radial functions.
  Species N                   : Default cutoff onset for free atom density etc. : 0.35000000E+01 AA.
  Species N                   : Basic radial grid will be enhanced according to radial_multiplier =   1, to contain    35 grid points.
 
  Reading configuration options for species O                   .
  | Found nuclear charge :   8.0000
  | Found atomic mass :    15.9994000000000      amu
  | Found l_max for Hartree potential  :   4
  | Found cutoff potl. onset [A], width [A], scale factor :    3.50000    1.50000    1.00000
  | Threshold for basis-dependent cutoff potential is   0.100000E-03
  | Found data for basic radial integration grid :    36 points, outermost radius =    5.000 A
  | Found multiplier for basic radial grid :   1
  | Found angular grid specification: user-specified.
  | Specified grid contains     5 separate shells.
  | Check grid settings after all constraints further below.
  | Found free-atom valence shell :  2 s   2.000
  | Found free-atom valence shell :  2 p   4.000
  | No ionic wave fns used. Skipping ion_occ.
  | No ionic wave fns used. Skipping ion_occ.
  | Found hydrogenic basis function :  2 p   1.800
  | Found hydrogenic basis function :  3 d   7.600
  | Found hydrogenic basis function :  3 s   6.400
  Species O                   : Missing cutoff potential type.
  Defaulting to exp(1/x)/(1-x)^2 type cutoff potential.
  Species O : No 'logarithmic' tag. Using default grid for free atom:
  | Default logarithmic grid data [bohr] : 0.1000E-03 0.1000E+03 0.1012E+01
  Species O : On-site basis accuracy parameter (for Gram-Schmidt orthonormalisation) not specified.
  Using default value basis_acc =  0.1000000E-03.
  Species O                   : Using default innermost maximum threshold i_radial=  2 for radial functions.
  Species O                   : Default cutoff onset for free atom density etc. : 0.35000000E+01 AA.
  Species O                   : Basic radial grid will be enhanced according to radial_multiplier =   1, to contain    36 grid points.
 
  Finished reading input file 'control.in'. Consistency checks are next.
 
  MPI_IN_PLACE appears to work with this MPI implementation.
  | Keeping use_mpi_in_place .true. (see manual).
  Target number of points in a grid batch is not set. Defaulting to  100
  Method for grid partitioning is not set. Defaulting to parallel hash+maxmin partitioning.
  Batch size limit is not set. Defaulting to    200
  By default, will store active basis functions for each batch.
  If in need of memory, prune_basis_once .false. can be used to disable this option.
  communication_type for Hartree potential was not specified.
  Defaulting to calc_hartree .
  Pulay mixer: Number of initial linear mixing iterations not set.
  Defaulting to    0 iterations.
  Work space size for distributed Hartree potential not set.
  Defaulting to   0.200000E+03 MB.
  Algorithm-dependent basis array size parameters:
  | n_max_pulay                         :       10
  Presetting      1001 iterations before the initial mixing cycle
  is restarted anyway using the sc_init_iter criterion / keyword.
  Presetting a factor      1.000 between actual scf density residual
  and density convergence criterion sc_accuracy_rho below which sc_init_iter
  takes no effect.
  Geometry relaxation not requested: no relaxation will be performed.
  Handling of forces: Unphysical translation and rotation will be removed from forces.
  No accuracy limit for integral partition fn. given. Defaulting to  0.1000E-14.
  No threshold value for u(r) in integrations given. Defaulting to  0.1000E-05.
  No accuracy for occupation numbers given. Defaulting to  0.1000E-12.
  No threshold value for occupation numbers given. Defaulting to  0.0000E+00.
  No accuracy for fermi level given. Defaulting to  0.1000E-19.
  Maximum # of iterations to find E_F not set. Defaulting to  200.
  Preferred method for the eigenvalue solver ('KS_method') not specified in 'control.in'.
  Defaulting to serial version, 'lapack_fast'.
  Will not use alltoall communication since running on < 1024 CPUs.
  Threshold for basis singularities not set.
  Default threshold for basis singularities:  0.1000E-04
  partition_type (choice of integration weights) for integrals was not specified.
  | Using a version of the partition function of Stratmann and coworkers ('stratmann_smoother').
  | At each grid point, the set of atoms used to build the partition table is smoothly restricted to
  | only those atoms whose free-atom density would be non-zero at that grid point.
  Partitioning for Hartree potential was not defined. Using partition_type for integrals.
  | Adjusted default value of keyword multip_moments_threshold to:       0.10000000E-11
  | This value may affect high angular momentum components of the Hartree potential in periodic systems.
  No q(lm)/r^(l+1) cutoff set for long-range Hartree potential.
  | Using default value of  0.100000E-09 .
  | Verify using the multipole_threshold keyword.
  Defaulting to new monopole extrapolation.
  Density update method: automatic selection selected.
------------------------------------------------------------


------------------------------------------------------------
          Reading geometry description geometry.in.
------------------------------------------------------------
  Input structure read successfully.
  The structure contains       13 atoms,  and a total of         48.000 electrons.

  Input geometry:
  | No unit cell requested.
  | Atomic structure:
  |       Atom                x [A]            y [A]            z [A]
  |    1: Species C             0.00000000        0.00000000        0.00000000
  |    2: Species H             1.09300000        0.00000000        0.00000000
  |    3: Species N            -0.47961000        0.00000000       -1.41207000
  |    4: Species H            -0.28850000        0.91484000       -1.82242000
  |    5: Species H             0.01551000       -0.72625000       -1.92544000
  |    6: Species C            -0.49584000        1.26211000        0.72868000
  |    7: Species H            -1.58789000        1.28919000        0.74431000
  |    8: Species H            -0.13407000        1.27425000        1.75947000
  |    9: Species H            -0.13407000        2.16087000        0.22380000
  |   10: Species C            -0.39425000       -1.28861000        0.74398000
  |   11: Species O            -0.10189000       -1.56493000        1.88303000
  |   12: Species O            -1.10210000       -2.13717000        0.06896000
  |   13: Species H            -1.70518000       -1.50800000       -0.36164000
  |

  | The smallest distance between any two atoms is         0.97209914 AA.
  |
  | The first atom of this pair is atom number                     12 .
  | The second atom of this pair is atom number                    13 .

  Number of empty states per atom not set in control.in - providing a guess from actual geometry.
  | Total number of empty states used during s.c.f. cycle:       29
  If you use a very high smearing, use empty_states (per atom!) in control.in to increase this value.

  Structure-dependent array size parameters: 
  | Maximum number of distinct radial functions  :       21
  | Maximum number of basis functions            :      119
  | Number of Kohn-Sham states (occupied + empty):       53
------------------------------------------------------------

------------------------------------------------------------
          Preparing all fixed parts of the calculation.
------------------------------------------------------------
  Determining machine precision:
    2.225073858507201E-308
  Setting up grids for atomic and cluster calculations.

  Creating wave function, potential, and density for free atoms.

  Species: H

  List of occupied orbitals and eigenvalues:
    n    l              occ      energy [Ha]    energy [eV]
    1    0           1.0000        -0.237589        -6.4651


  Species: C

  List of occupied orbitals and eigenvalues:
    n    l              occ      energy [Ha]    energy [eV]
    1    0           2.0000       -10.038835      -273.1706
    2    0           2.0000        -0.502696       -13.6791
    2    1           2.0000        -0.191971        -5.2238


  Species: N

  List of occupied orbitals and eigenvalues:
    n    l              occ      energy [Ha]    energy [eV]
    1    0           2.0000       -14.128000      -384.4424
    2    0           2.0000        -0.681077       -18.5330
    2    1           3.0000        -0.259788        -7.0692


  Species: O

  List of occupied orbitals and eigenvalues:
    n    l              occ      energy [Ha]    energy [eV]
    1    0           2.0000       -18.898188      -514.2459
    2    0           2.0000        -0.878505       -23.9053
    2    1           4.0000        -0.331779        -9.0282

  Creating fixed part of basis set: Ionic, confined, hydrogenic.
 
  H                    hydrogenic:
 
  List of hydrogenic basis orbitals: 
    n    l      effective z      eigenvalue [eV]  inner max. [A]     outer max. [A]     outer radius [A]   
    2    0         2.100000       -14.9728           0.193243           1.317208           4.583499
    2    1         3.500000       -41.6669           0.602369           0.602369           3.723403
 
 
  C                    hydrogenic:
 
  List of hydrogenic basis orbitals: 
    n    l      effective z      eigenvalue [eV]  inner max. [A]     outer max. [A]     outer radius [A]   
    2    1         1.700000        -9.7616           1.230570           1.230570           4.607917
    3    2         6.000000       -54.4224           0.792453           0.792453           3.883070
    2    0         4.900000       -81.6679           0.082559           0.562749           3.078220
 
 
  N                    hydrogenic:
 
  List of hydrogenic basis orbitals: 
    n    l      effective z      eigenvalue [eV]  inner max. [A]     outer max. [A]     outer radius [A]   
    2    1         1.800000       -10.9749           1.177451           1.177451           4.573712
    3    2         6.800000       -69.9026           0.704619           0.704619           3.538137
    3    0         5.800000       -50.8545           0.067388           1.191934           4.250239
 
 
  O                    hydrogenic:
 
  List of hydrogenic basis orbitals: 
    n    l      effective z      eigenvalue [eV]  inner max. [A]     outer max. [A]     outer radius [A]   
    2    1         1.800000       -10.9749           1.164242           1.164242           4.578029
    3    2         7.600000       -87.3180           0.624125           0.624125           3.251020
    3    0         6.400000       -61.9207           0.061167           1.081902           4.001998
 

  Adding cutoff potential to free-atom effective potential.
  Creating atomic-like basis functions for current effective potential.

  Species H                   :

  List of atomic basis orbitals and eigenvalues:
    n    l      energy [Ha]    energy [eV]    outer radius [A]
    1    0        -0.237589        -6.4651       4.527807


  Species C                   :

  List of atomic basis orbitals and eigenvalues:
    n    l      energy [Ha]    energy [eV]    outer radius [A]
    1    0       -10.038835      -273.1706       1.934409
    2    0        -0.502696       -13.6791       4.496620
    2    1        -0.191971        -5.2238       4.551928


  Species N                   :

  List of atomic basis orbitals and eigenvalues:
    n    l      energy [Ha]    energy [eV]    outer radius [A]
    1    0       -14.128000      -384.4424       1.637919
    2    0        -0.681077       -18.5330       4.463241
    2    1        -0.259788        -7.0692       4.518138


  Species O                   :

  List of atomic basis orbitals and eigenvalues:
    n    l      energy [Ha]    energy [eV]    outer radius [A]
    1    0       -18.898188      -514.2459       1.415765
    2    0        -0.878505       -23.9053       4.413171
    2    1        -0.331779        -9.0282       4.522403

  Assembling full basis from fixed parts.
  | Species H :   atomic orbital   1 s accepted.
  | Species H :    hydro orbital   2 s accepted.
  | Species H :    hydro orbital   2 p accepted.
  | Species C :   atomic orbital   1 s accepted.
  | Species C :    hydro orbital   2 s accepted.
  | Species C :   atomic orbital   2 s accepted.
  | Species C :   atomic orbital   2 p accepted.
  | Species C :    hydro orbital   2 p accepted.
  | Species C :    hydro orbital   3 d accepted.
  | Species N :   atomic orbital   1 s accepted.
  | Species N :    hydro orbital   3 s accepted.
  | Species N :   atomic orbital   2 s accepted.
  | Species N :   atomic orbital   2 p accepted.
  | Species N :    hydro orbital   2 p accepted.
  | Species N :    hydro orbital   3 d accepted.
  | Species O :   atomic orbital   1 s accepted.
  | Species O :    hydro orbital   3 s accepted.
  | Species O :   atomic orbital   2 s accepted.
  | Species O :   atomic orbital   2 p accepted.
  | Species O :    hydro orbital   2 p accepted.
  | Species O :    hydro orbital   3 d accepted.
 
  Basis size parameters after reduction:
  | Total number of radial functions:       21
  | Total number of basis functions :      119
 
  Per-task memory consumption for arrays in subroutine allocate_ext:
  |           5.250512MB.
  Testing on-site integration grid accuracy.
  |  Species  Function  <phi|h_atom|phi> (log., in eV)  <phi|h_atom|phi> (rad., in eV)
           1        1                 -6.4663192853                 -6.4651273558
           1        2                 13.7111246313                 13.7170609718
           1        3                 25.2673269279                 25.2674696378
           2        4               -273.1705927641               -273.1705631568
           2        5                -10.7109323383                -10.7107120029
           2        6                 17.4381822266                 17.4352413244
           2        7                 -5.2255326521                 -5.2270484734
           2        8                  8.6835629259                  8.6603288385
           2        9                 27.4952418996                 27.4953360207
           3       10               -384.4424306495               -384.4423701208
           3       11                 12.5842251816                 12.5842222903
           3       12                -15.7264628251                -15.7264433455
           3       13                 -7.0696854293                 -7.0701769954
           3       14                  8.8090390882                  8.7901077751
           3       15                 35.9586762123                 35.9588528632
           4       16               -514.2458688638               -514.2457643834
           4       17                 15.1795651126                 15.1795290741
           4       18                -21.5359799773                -21.5360846186
           4       19                 -9.0283069236                 -9.0284644067
           4       20                  8.3027758564                  8.2834874195
           4       21                 45.8339351984                 45.8338762259

  Preparing densities etc. for the partition functions (integrals / Hartree potential).

  Preparations completed.
  max(cpu_time)          :      0.158 s.
  Wall clock time (cpu1) :      0.163 s.
------------------------------------------------------------

------------------------------------------------------------
          Begin self-consistency loop: Initialization.

          Date     :  20200815, Time     :  003955.346
------------------------------------------------------------

  Initializing index lists of integration centers etc. from given atomic structure:
  | Number of centers in hartree potential         :        13
  | Number of centers in hartree multipole         :        13
  | Number of centers in electron density summation:        13
  | Number of centers in basis integrals           :        13
  | Number of centers in integrals                 :        13
  | Number of centers in hamiltonian               :        13
  Partitioning the integration grid into batches with parallel hashing+maxmin method.
  | Number of batches:      961
  | Maximal batch size:     138
  | Minimal batch size:      66
  | Average batch size:      72.472
  | Standard deviation of batch sizes:      16.811

  Integration load balanced across     1 MPI tasks.
  Work distribution over tasks is as follows:
  Task     0 has      69646 integration points.
  Initializing partition tables, free-atom densities, potentials, etc. across the integration grid (initialize_grid_storage).
  | initialize_grid_storage: Actual outermost partition radius vs. multipole_radius_free
  | (-- VB: in principle, multipole_radius_free should be larger, hence this output)
  | Species        1: Confinement radius =              4.999999999999999 AA, multipole_radius_free =              5.054417573612229 AA.
  | Species        1: outer_partition_radius set to              5.054417573612229 AA .
  | Species        2: Confinement radius =              4.999999999999999 AA, multipole_radius_free =              5.019602836301480 AA.
  | Species        2: outer_partition_radius set to              5.019602836301480 AA .
  | Species        3: Confinement radius =              4.999999999999999 AA, multipole_radius_free =              5.043624274424571 AA.
  | Species        3: outer_partition_radius set to              5.043624274424571 AA .
  | Species        4: Confinement radius =              4.999999999999999 AA, multipole_radius_free =              5.048384829883283 AA.
  | Species        4: outer_partition_radius set to              5.048384829883283 AA .
  | Original list of interatomic distances with          13 x         13 entries is created.
  | Net number of integration points:    69646
  | of which are non-zero points    :    59452
  Renormalizing the initial density to the exact electron count on the 3D integration grid.
  | Initial density: Formal number of electrons (from input files) :      48.0000000000
  | Integrated number of electrons on 3D grid     :      47.9999433688
  | Charge integration error                      :      -0.0000566312
  | Normalization factor for density and gradient :       1.0000011798
  Obtaining max. number of non-zero basis functions in each batch (get_n_compute_maxes).
  | Maximal number of non-zero basis functions:      119 in task     0
  Selecting the method for density update.
  Loop over occupied states selected for charge density update.
  Allocating        0.050 MB for KS_eigenvector
  Integrating Hamiltonian matrix: batch-based integration.
  Time summed over all CPUs for integration: real work        0.500 s, elapsed        0.500 s
  Integrating overlap matrix.
  Time summed over all CPUs for integration: real work        0.215 s, elapsed        0.215 s

  Updating Kohn-Sham eigenvalues and eigenvectors using ELSI and the ELPA eigensolver.
  Overlap matrix is nonsingular
  | Lowest eigenvalue of overlap  :  0.55E-02
  | Highest eigenvalue of overlap :  0.63E+01
  Finished singularity check of overlap matrix
  | Time :     0.002 s
  Finished Cholesky decomposition
  | Time :     0.000 s
  Finished transformation to standard eigenproblem
  | Time :     0.000 s
  Starting LAPACK eigensolver
  Finished solving standard eigenproblem
  | Time :     0.002 s
  Finished back-transformation of eigenvectors
  | Time :     0.000 s

  Obtaining occupation numbers and chemical potential using ELSI.
  | Chemical potential (Fermi level):    -9.32577944eV
  Writing Kohn-Sham eigenvalues.

  State    Occupation    Eigenvalue [Ha]    Eigenvalue [eV]
      1       2.00000         -19.007584         -517.22268
      2       2.00000         -18.977143         -516.39432
      3       2.00000         -14.246441         -387.66537
      4       2.00000         -10.166736         -276.65095
      5       2.00000         -10.141695         -275.96955
      6       2.00000         -10.131943         -275.70420
      7       2.00000          -1.181670          -32.15488
      8       2.00000          -1.100277          -29.94007
      9       2.00000          -0.991837          -26.98926
     10       2.00000          -0.860817          -23.42401
     11       2.00000          -0.753926          -20.51537
     12       2.00000          -0.679094          -18.47908
     13       2.00000          -0.632361          -17.20742
     14       2.00000          -0.606541          -16.50481
     15       2.00000          -0.595314          -16.19932
     16       2.00000          -0.557909          -15.18148
     17       2.00000          -0.544927          -14.82823
     18       2.00000          -0.540457          -14.70660
     19       2.00000          -0.513413          -13.97068
     20       2.00000          -0.502081          -13.66231
     21       2.00000          -0.469127          -12.76561
     22       2.00000          -0.428757          -11.66708
     23       2.00000          -0.408367          -11.11224
     24       2.00000          -0.384842          -10.47208
     25       0.00000          -0.153725           -4.18306
     26       0.00000          -0.064418           -1.75290
     27       0.00000          -0.031051           -0.84494
     28       0.00000          -0.011535           -0.31390
     29       0.00000           0.002397            0.06524
     30       0.00000           0.009169            0.24950
     31       0.00000           0.016862            0.45885
     32       0.00000           0.029592            0.80525
     33       0.00000           0.045738            1.24460
     34       0.00000           0.063988            1.74121
     35       0.00000           0.075816            2.06305
     36       0.00000           0.133041            3.62022
     37       0.00000           0.157736            4.29220
     38       0.00000           0.206431            5.61728
     39       0.00000           0.215400            5.86132
     40       0.00000           0.234626            6.38451
     41       0.00000           0.240870            6.55441
     42       0.00000           0.262327            7.13827
     43       0.00000           0.282038            7.67465
     44       0.00000           0.300409            8.17453
     45       0.00000           0.336383            9.15346
     46       0.00000           0.362507            9.86431
     47       0.00000           0.373622           10.16676
     48       0.00000           0.413034           11.23923
     49       0.00000           0.452945           12.32526
     50       0.00000           0.470564           12.80470
     51       0.00000           0.474555           12.91329
     52       0.00000           0.554087           15.07748
     53       0.00000           0.575228           15.65276

  Highest occupied state (VBM) at    -10.47207671 eV
  | Occupation number:      2.00000000

  Lowest unoccupied state (CBM) at    -4.18305920 eV
  | Occupation number:      0.00000000

  Overall HOMO-LUMO gap:      6.28901751 eV.
  Calculating total energy contributions from superposition of free atom densities.

  Total energy components:
  | Sum of eigenvalues            :        -188.84651656 Ha       -5138.77517348 eV
  | XC energy correction          :         -41.79197027 Ha       -1137.21737207 eV
  | XC potential correction       :          53.72463303 Ha        1461.92164653 eV
  | Free-atom electrostatic energy:        -146.85106848 Ha       -3996.02088865 eV
  | Hartree energy correction     :           0.00000000 Ha           0.00000000 eV
  | vdW energy correction         :           0.00000000 Ha           0.00000000 eV
  | Entropy correction            :           0.00000000 Ha           0.00000000 eV
  | ---------------------------
  | Total energy                  :        -323.76492228 Ha       -8810.09178768 eV
  | Total energy, T -> 0          :        -323.76492228 Ha       -8810.09178768 eV  <-- do not rely on this value for anything but (periodic) metals
  | Electronic free energy        :        -323.76492228 Ha       -8810.09178768 eV

  Derived energy quantities:
  | Kinetic energy                :         320.49765221 Ha        8721.18484551 eV
  | Electrostatic energy          :        -602.47060421 Ha      -16394.05926112 eV
  | Energy correction for multipole
  | error in Hartree potential    :           0.00000000 Ha           0.00000000 eV
  | Sum of eigenvalues per atom                           :        -395.29039796 eV
  | Total energy (T->0) per atom                          :        -677.69936828 eV  <-- do not rely on this value for anything but (periodic) metals
  | Electronic free energy per atom                       :        -677.69936828 eV
  Initialize hartree_potential_storage
  Max. number of atoms included in rho_multipole:           13

  End scf initialization - timings             :  max(cpu_time)    wall_clock(cpu1)
  | Time for scf. initialization               :        1.166 s           1.172 s
  | Boundary condition initialization          :        0.000 s           0.001 s
  | Integration                                :        0.716 s           0.718 s
  | Solution of K.-S. eqns.                    :        0.004 s           0.004 s
  | Grid partitioning                          :        0.114 s           0.116 s
  | Preloading free-atom quantities on grid    :        0.002 s           0.003 s
  | Free-atom superposition energy             :        0.085 s           0.085 s
  | Total energy evaluation                    :        0.000 s           0.001 s

  Partial memory accounting:
  | Current value for overall tracked memory usage on task 0  :           0.165 MB
  | Peak value for overall tracked memory usage on task 0     :           0.676 MB after allocating wave
  | Largest tracked array allocation on task 0 so far         :           0.131 MB  when allocating H_times_psi
  Note:  These values currently only include a subset of arrays which are explicitly tracked.
  The "true" memory usage will be greater.
------------------------------------------------------------

------------------------------------------------------------
          Begin self-consistency iteration #    1

  Date     :  20200815, Time     :  003956.518
------------------------------------------------------------
  Evaluating new KS density.
  Integration grid: deviation in total charge (<rho> - N_e) =  -3.552714E-14
  Pulay mixing of updated and previous charge densities.

  Evaluating partitioned Hartree potential by multipole expansion.
  | Analytical far-field extrapolation by fixed multipoles:
  | Hartree multipole sum: apparent total charge =  -0.164043E-03
  Summing up the Hartree potential.
  Time summed over all CPUs for potential: real work        0.284 s, elapsed        0.284 s
  | RMS charge density error from multipole expansion :   0.584406E-02

  Integrating Hamiltonian matrix: batch-based integration.
  Time summed over all CPUs for integration: real work        0.501 s, elapsed        0.501 s

  Updating Kohn-Sham eigenvalues and eigenvectors using ELSI and the ELPA eigensolver.
  Finished Cholesky decomposition
  | Time :     0.000 s
  Finished transformation to standard eigenproblem
  | Time :     0.000 s
  Starting LAPACK eigensolver
  Finished solving standard eigenproblem
  | Time :     0.002 s
  Finished back-transformation of eigenvectors
  | Time :     0.000 s

  Obtaining occupation numbers and chemical potential using ELSI.
  | Chemical potential (Fermi level):    -8.22328835eV
  Writing Kohn-Sham eigenvalues.

  State    Occupation    Eigenvalue [Ha]    Eigenvalue [eV]
      1       2.00000         -18.900699         -514.31418
      2       2.00000         -18.832133         -512.44840
      3       2.00000         -14.105916         -383.84151
      4       2.00000         -10.113834         -275.21142
      5       2.00000         -10.067046         -273.93826
      6       2.00000         -10.034325         -273.04787
      7       2.00000          -1.129829          -30.74422
      8       2.00000          -1.033901          -28.13387
      9       2.00000          -0.927806          -25.24690
     10       2.00000          -0.797944          -21.71317
     11       2.00000          -0.703094          -19.13216
     12       2.00000          -0.632227          -17.20376
     13       2.00000          -0.579196          -15.76072
     14       2.00000          -0.555858          -15.12566
     15       2.00000          -0.533655          -14.52149
     16       2.00000          -0.493476          -13.42815
     17       2.00000          -0.490023          -13.33421
     18       2.00000          -0.482439          -13.12782
     19       2.00000          -0.450437          -12.25701
     20       2.00000          -0.446310          -12.14472
     21       2.00000          -0.409442          -11.14149
     22       2.00000          -0.366700           -9.97842
     23       2.00000          -0.336197           -9.14839
     24       2.00000          -0.317472           -8.63885
     25       0.00000          -0.115179           -3.13417
     26       0.00000          -0.041431           -1.12739
     27       0.00000           0.003623            0.09858
     28       0.00000           0.016757            0.45597
     29       0.00000           0.030947            0.84212
     30       0.00000           0.041823            1.13806
     31       0.00000           0.054887            1.49355
     32       0.00000           0.067628            1.84025
     33       0.00000           0.082039            2.23240
     34       0.00000           0.100598            2.73740
     35       0.00000           0.115671            3.14758
     36       0.00000           0.162389            4.41884
     37       0.00000           0.183373            4.98984
     38       0.00000           0.236810            6.44394
     39       0.00000           0.247531            6.73567
     40       0.00000           0.264950            7.20966
     41       0.00000           0.271339            7.38352
     42       0.00000           0.294767            8.02102
     43       0.00000           0.317239            8.63251
     44       0.00000           0.338926            9.22266
     45       0.00000           0.374477           10.19004
     46       0.00000           0.407613           11.09173
     47       0.00000           0.412753           11.23159
     48       0.00000           0.447872           12.18723
     49       0.00000           0.488617           13.29594
     50       0.00000           0.504098           13.71721
     51       0.00000           0.509560           13.86584
     52       0.00000           0.583220           15.87021
     53       0.00000           0.612480           16.66643

  Highest occupied state (VBM) at     -8.63884704 eV
  | Occupation number:      2.00000000

  Lowest unoccupied state (CBM) at    -3.13417056 eV
  | Occupation number:      0.00000000

  Overall HOMO-LUMO gap:      5.50467648 eV.

  Total energy components:
  | Sum of eigenvalues            :        -185.47991605 Ha       -5047.16531273 eV
  | XC energy correction          :         -42.11870825 Ha       -1146.10836488 eV
  | XC potential correction       :          54.14955457 Ha        1473.48434990 eV
  | Free-atom electrostatic energy:        -146.85106848 Ha       -3996.02088865 eV
  | Hartree energy correction     :          -3.28669911 Ha         -89.43563315 eV
  | vdW energy correction         :           0.00000000 Ha           0.00000000 eV
  | Entropy correction            :           0.00000000 Ha           0.00000000 eV
  | ---------------------------
  | Total energy                  :        -323.58683732 Ha       -8805.24584952 eV
  | Total energy, T -> 0          :        -323.58683732 Ha       -8805.24584952 eV  <-- do not rely on this value for anything but (periodic) metals
  | Electronic free energy        :        -323.58683732 Ha       -8805.24584952 eV

  Derived energy quantities:
  | Kinetic energy                :         322.27589321 Ha        8769.57324509 eV
  | Electrostatic energy          :        -603.74402228 Ha      -16428.71072973 eV
  | Energy correction for multipole
  | error in Hartree potential    :           0.01149335 Ha           0.31275008 eV
  | Sum of eigenvalues per atom                           :        -388.24348559 eV
  | Total energy (T->0) per atom                          :        -677.32660381 eV  <-- do not rely on this value for anything but (periodic) metals
  | Electronic free energy per atom                       :        -677.32660381 eV

  Self-consistency convergence accuracy:
  | Change of charge density      :  0.5816E+00
  | Change of sum of eigenvalues  :  0.9161E+02 eV
  | Change of total energy        :  0.4846E+01 eV

  End self-consistency iteration #     1       :  max(cpu_time)    wall_clock(cpu1)
  | Time for this iteration                    :        1.203 s           1.204 s
  | Charge density update                      :        0.400 s           0.400 s
  | Density mixing                             :        0.006 s           0.006 s
  | Hartree multipole update                   :        0.009 s           0.009 s
  | Hartree multipole summation                :        0.286 s           0.286 s
  | Integration                                :        0.501 s           0.501 s
  | Solution of K.-S. eqns.                    :        0.002 s           0.002 s
  | Total energy evaluation                    :        0.000 s           0.000 s

  Partial memory accounting:
  | Current value for overall tracked memory usage on task 0  :           0.165 MB
  | Peak value for overall tracked memory usage on task 0     :           0.691 MB after allocating gradient_basis_wave
  | Largest tracked array allocation on task 0 so far         :           0.394 MB  when allocating gradient_basis_wave
  Note:  These values currently only include a subset of arrays which are explicitly tracked.
  The "true" memory usage will be greater.
------------------------------------------------------------

------------------------------------------------------------
          Begin self-consistency iteration #    2

  Date     :  20200815, Time     :  003957.725
------------------------------------------------------------
  Evaluating new KS density.
  Integration grid: deviation in total charge (<rho> - N_e) =  -4.973799E-14
  Pulay mixing of updated and previous charge densities.

  Evaluating partitioned Hartree potential by multipole expansion.
  | Analytical far-field extrapolation by fixed multipoles:
  | Hartree multipole sum: apparent total charge =  -0.301598E-03
  Summing up the Hartree potential.
  Time summed over all CPUs for potential: real work        0.285 s, elapsed        0.285 s
  | RMS charge density error from multipole expansion :   0.138816E-01

  Integrating Hamiltonian matrix: batch-based integration.
  Time summed over all CPUs for integration: real work        0.502 s, elapsed        0.502 s

  Updating Kohn-Sham eigenvalues and eigenvectors using ELSI and the ELPA eigensolver.
  Finished Cholesky decomposition
  | Time :     0.000 s
  Finished transformation to standard eigenproblem
  | Time :     0.000 s
  Starting LAPACK eigensolver
  Finished solving standard eigenproblem
  | Time :     0.002 s
  Finished back-transformation of eigenvectors
  | Time :     0.000 s

  Obtaining occupation numbers and chemical potential using ELSI.
  | Chemical potential (Fermi level):    -2.79850779eV
  Highest occupied state (VBM) at     -6.79506643 eV
  | Occupation number:      2.00000000

  Lowest unoccupied state (CBM) at    -1.80872115 eV
  | Occupation number:      0.00000000

  Overall HOMO-LUMO gap:      4.98634528 eV.

  Checking to see if s.c.f. parameters should be adjusted.

  Total energy components:
  | Sum of eigenvalues            :        -181.95124994 Ha       -4951.14542248 eV
  | XC energy correction          :         -42.47415563 Ha       -1155.78058005 eV
  | XC potential correction       :          54.61025035 Ha        1486.02051979 eV
  | Free-atom electrostatic energy:        -146.85106848 Ha       -3996.02088865 eV
  | Hartree energy correction     :          -6.84397318 Ha        -186.23398562 eV
  | vdW energy correction         :           0.00000000 Ha           0.00000000 eV
  | Entropy correction            :           0.00000000 Ha           0.00000000 eV
  | ---------------------------
  | Total energy                  :        -323.51019688 Ha       -8803.16035702 eV
  | Total energy, T -> 0          :        -323.51019688 Ha       -8803.16035702 eV  <-- do not rely on this value for anything but (periodic) metals
  | Electronic free energy        :        -323.51019688 Ha       -8803.16035702 eV

  Derived energy quantities:
  | Kinetic energy                :         323.57810369 Ha        8805.00819517 eV
  | Electrostatic energy          :        -604.61414494 Ha      -16452.38797213 eV
  | Energy correction for multipole
  | error in Hartree potential    :           0.02512478 Ha           0.68367997 eV
  | Sum of eigenvalues per atom                           :        -380.85734019 eV
  | Total energy (T->0) per atom                          :        -677.16618131 eV  <-- do not rely on this value for anything but (periodic) metals
  | Electronic free energy per atom                       :        -677.16618131 eV

  Self-consistency convergence accuracy:
  | Change of charge density      :  0.3630E+00
  | Change of sum of eigenvalues  :  0.9602E+02 eV
  | Change of total energy        :  0.2085E+01 eV

  End self-consistency iteration #     2       :  max(cpu_time)    wall_clock(cpu1)
  | Time for this iteration                    :        1.196 s           1.198 s
  | Charge density update                      :        0.391 s           0.392 s
  | Density mixing                             :        0.007 s           0.007 s
  | Hartree multipole update                   :        0.009 s           0.009 s
  | Hartree multipole summation                :        0.285 s           0.285 s
  | Integration                                :        0.501 s           0.502 s
  | Solution of K.-S. eqns.                    :        0.002 s           0.003 s
  | Total energy evaluation                    :        0.000 s           0.000 s

  Partial memory accounting:
  | Current value for overall tracked memory usage on task 0  :           0.166 MB
  | Peak value for overall tracked memory usage on task 0     :           0.691 MB after allocating gradient_basis_wave
  | Largest tracked array allocation on task 0 so far         :           0.394 MB  when allocating gradient_basis_wave
  Note:  These values currently only include a subset of arrays which are explicitly tracked.
  The "true" memory usage will be greater.
------------------------------------------------------------

------------------------------------------------------------
          Begin self-consistency iteration #    3

  Date     :  20200815, Time     :  003958.925
------------------------------------------------------------
  Evaluating new KS density.
  Integration grid: deviation in total charge (<rho> - N_e) =   2.842171E-14
  Pulay mixing of updated and previous charge densities.

  Evaluating partitioned Hartree potential by multipole expansion.
  | Analytical far-field extrapolation by fixed multipoles:
  | Hartree multipole sum: apparent total charge =  -0.402757E-03
  Summing up the Hartree potential.
  Time summed over all CPUs for potential: real work        0.285 s, elapsed        0.285 s
  | RMS charge density error from multipole expansion :   0.219780E-01

  Integrating Hamiltonian matrix: batch-based integration.
  Time summed over all CPUs for integration: real work        0.501 s, elapsed        0.501 s

  Updating Kohn-Sham eigenvalues and eigenvectors using ELSI and the ELPA eigensolver.
  Finished Cholesky decomposition
  | Time :     0.000 s
  Finished transformation to standard eigenproblem
  | Time :     0.000 s
  Starting LAPACK eigensolver
  Finished solving standard eigenproblem
  | Time :     0.001 s
  Finished back-transformation of eigenvectors
  | Time :     0.000 s

  Obtaining occupation numbers and chemical potential using ELSI.
  | Chemical potential (Fermi level):    -2.13882958eV
  Highest occupied state (VBM) at     -6.15970164 eV
  | Occupation number:      2.00000000

  Lowest unoccupied state (CBM) at    -1.07636570 eV
  | Occupation number:      0.00000000

  Overall HOMO-LUMO gap:      5.08333594 eV.

  Total energy components:
  | Sum of eigenvalues            :        -180.62197282 Ha       -4914.97395164 eV
  | XC energy correction          :         -42.62730441 Ha       -1159.94797040 eV
  | XC potential correction       :          54.80555298 Ha        1491.33497490 eV
  | Free-atom electrostatic energy:        -146.85106848 Ha       -3996.02088865 eV
  | Hartree energy correction     :          -8.20291536 Ha        -223.21268386 eV
  | vdW energy correction         :           0.00000000 Ha           0.00000000 eV
  | Entropy correction            :           0.00000000 Ha           0.00000000 eV
  | ---------------------------
  | Total energy                  :        -323.49770809 Ha       -8802.82051966 eV
  | Total energy, T -> 0          :        -323.49770809 Ha       -8802.82051966 eV  <-- do not rely on this value for anything but (periodic) metals
  | Electronic free energy        :        -323.49770809 Ha       -8802.82051966 eV

  Derived energy quantities:
  | Kinetic energy                :         323.18141556 Ha        8794.21376205 eV
  | Electrostatic energy          :        -604.05181924 Ha      -16437.08631131 eV
  | Energy correction for multipole
  | error in Hartree potential    :           0.03533660 Ha           0.96155779 eV
  | Sum of eigenvalues per atom                           :        -378.07491936 eV
  | Total energy (T->0) per atom                          :        -677.14003997 eV  <-- do not rely on this value for anything but (periodic) metals
  | Electronic free energy per atom                       :        -677.14003997 eV

  Self-consistency convergence accuracy:
  | Change of charge density      :  0.2032E+00
  | Change of sum of eigenvalues  :  0.3617E+02 eV
  | Change of total energy        :  0.3398E+00 eV

  End self-consistency iteration #     3       :  max(cpu_time)    wall_clock(cpu1)
  | Time for this iteration                    :        1.197 s           1.198 s
  | Charge density update                      :        0.391 s           0.392 s
  | Density mixing                             :        0.009 s           0.009 s
  | Hartree multipole update                   :        0.009 s           0.009 s
  | Hartree multipole summation                :        0.285 s           0.285 s
  | Integration                                :        0.501 s           0.501 s
  | Solution of K.-S. eqns.                    :        0.002 s           0.002 s
  | Total energy evaluation                    :        0.000 s           0.000 s

  Partial memory accounting:
  | Current value for overall tracked memory usage on task 0  :           0.166 MB
  | Peak value for overall tracked memory usage on task 0     :           0.692 MB after allocating gradient_basis_wave
  | Largest tracked array allocation on task 0 so far         :           0.394 MB  when allocating gradient_basis_wave
  Note:  These values currently only include a subset of arrays which are explicitly tracked.
  The "true" memory usage will be greater.
------------------------------------------------------------

------------------------------------------------------------
          Begin self-consistency iteration #    4

  Date     :  20200815, Time     :  004000.126
------------------------------------------------------------
  Evaluating new KS density.
  Integration grid: deviation in total charge (<rho> - N_e) =  -1.421085E-14
  Pulay mixing of updated and previous charge densities.

  Evaluating partitioned Hartree potential by multipole expansion.
  | Analytical far-field extrapolation by fixed multipoles:
  | Hartree multipole sum: apparent total charge =  -0.436664E-03
  Summing up the Hartree potential.
  Time summed over all CPUs for potential: real work        0.285 s, elapsed        0.285 s
  | RMS charge density error from multipole expansion :   0.254424E-01

  Integrating Hamiltonian matrix: batch-based integration.
  Time summed over all CPUs for integration: real work        0.503 s, elapsed        0.503 s

  Updating Kohn-Sham eigenvalues and eigenvectors using ELSI and the ELPA eigensolver.
  Finished Cholesky decomposition
  | Time :     0.000 s
  Finished transformation to standard eigenproblem
  | Time :     0.000 s
  Starting LAPACK eigensolver
  Finished solving standard eigenproblem
  | Time :     0.001 s
  Finished back-transformation of eigenvectors
  | Time :     0.000 s

  Obtaining occupation numbers and chemical potential using ELSI.
  | Chemical potential (Fermi level):    -2.04481311eV
  Highest occupied state (VBM) at     -5.90920178 eV
  | Occupation number:      2.00000000

  Lowest unoccupied state (CBM) at    -0.98889682 eV
  | Occupation number:      0.00000000

  Overall HOMO-LUMO gap:      4.92030496 eV.

  Total energy components:
  | Sum of eigenvalues            :        -180.50768642 Ha       -4911.86406026 eV
  | XC energy correction          :         -42.66342114 Ha       -1160.93075678 eV
  | XC potential correction       :          54.85085727 Ha        1492.56776730 eV
  | Free-atom electrostatic energy:        -146.85106848 Ha       -3996.02088865 eV
  | Hartree energy correction     :          -8.32540591 Ha        -226.54582127 eV
  | vdW energy correction         :           0.00000000 Ha           0.00000000 eV
  | Entropy correction            :           0.00000000 Ha           0.00000000 eV
  | ---------------------------
  | Total energy                  :        -323.49672468 Ha       -8802.79375967 eV
  | Total energy, T -> 0          :        -323.49672468 Ha       -8802.79375967 eV  <-- do not rely on this value for anything but (periodic) metals
  | Electronic free energy        :        -323.49672468 Ha       -8802.79375967 eV

  Derived energy quantities:
  | Kinetic energy                :         322.78165060 Ha        8783.33560389 eV
  | Electrostatic energy          :        -603.61495413 Ha      -16425.19860678 eV
  | Energy correction for multipole
  | error in Hartree potential    :           0.03920833 Ha           1.06691288 eV
  | Sum of eigenvalues per atom                           :        -377.83569694 eV
  | Total energy (T->0) per atom                          :        -677.13798151 eV  <-- do not rely on this value for anything but (periodic) metals
  | Electronic free energy per atom                       :        -677.13798151 eV

  Self-consistency convergence accuracy:
  | Change of charge density      :  0.6590E-01
  | Change of sum of eigenvalues  :  0.3110E+01 eV
  | Change of total energy        :  0.2676E-01 eV

  End self-consistency iteration #     4       :  max(cpu_time)    wall_clock(cpu1)
  | Time for this iteration                    :        1.201 s           1.203 s
  | Charge density update                      :        0.392 s           0.393 s
  | Density mixing                             :        0.010 s           0.010 s
  | Hartree multipole update                   :        0.009 s           0.009 s
  | Hartree multipole summation                :        0.286 s           0.286 s
  | Integration                                :        0.502 s           0.503 s
  | Solution of K.-S. eqns.                    :        0.002 s           0.002 s
  | Total energy evaluation                    :        0.000 s           0.000 s

  Partial memory accounting:
  | Current value for overall tracked memory usage on task 0  :           0.166 MB
  | Peak value for overall tracked memory usage on task 0     :           0.692 MB after allocating gradient_basis_wave
  | Largest tracked array allocation on task 0 so far         :           0.394 MB  when allocating gradient_basis_wave
  Note:  These values currently only include a subset of arrays which are explicitly tracked.
  The "true" memory usage will be greater.
------------------------------------------------------------

------------------------------------------------------------
          Begin self-consistency iteration #    5

  Date     :  20200815, Time     :  004001.332
------------------------------------------------------------
  Evaluating new KS density.
  Integration grid: deviation in total charge (<rho> - N_e) =  -7.105427E-14
  Pulay mixing of updated and previous charge densities.

  Evaluating partitioned Hartree potential by multipole expansion.
  | Analytical far-field extrapolation by fixed multipoles:
  | Hartree multipole sum: apparent total charge =  -0.431060E-03
  Summing up the Hartree potential.
  Time summed over all CPUs for potential: real work        0.285 s, elapsed        0.285 s
  | RMS charge density error from multipole expansion :   0.251864E-01

  Integrating Hamiltonian matrix: batch-based integration.
  Time summed over all CPUs for integration: real work        0.501 s, elapsed        0.501 s

  Updating Kohn-Sham eigenvalues and eigenvectors using ELSI and the ELPA eigensolver.
  Finished Cholesky decomposition
  | Time :     0.000 s
  Finished transformation to standard eigenproblem
  | Time :     0.000 s
  Starting LAPACK eigensolver
  Finished solving standard eigenproblem
  | Time :     0.002 s
  Finished back-transformation of eigenvectors
  | Time :     0.000 s

  Obtaining occupation numbers and chemical potential using ELSI.
  | Chemical potential (Fermi level):    -2.10117429eV
  Highest occupied state (VBM) at     -6.03172375 eV
  | Occupation number:      2.00000000

  Lowest unoccupied state (CBM) at    -1.06973032 eV
  | Occupation number:      0.00000000

  Overall HOMO-LUMO gap:      4.96199343 eV.

  Total energy components:
  | Sum of eigenvalues            :        -180.67583573 Ha       -4916.43963591 eV
  | XC energy correction          :         -42.64201981 Ha       -1160.34839686 eV
  | XC potential correction       :          54.82310766 Ha        1491.81266210 eV
  | Free-atom electrostatic energy:        -146.85106848 Ha       -3996.02088865 eV
  | Hartree energy correction     :          -8.15061098 Ha        -221.78940928 eV
  | vdW energy correction         :           0.00000000 Ha           0.00000000 eV
  | Entropy correction            :           0.00000000 Ha           0.00000000 eV
  | ---------------------------
  | Total energy                  :        -323.49642734 Ha       -8802.78566860 eV
  | Total energy, T -> 0          :        -323.49642734 Ha       -8802.78566860 eV  <-- do not rely on this value for anything but (periodic) metals
  | Electronic free energy        :        -323.49642734 Ha       -8802.78566860 eV

  Derived energy quantities:
  | Kinetic energy                :         322.68894123 Ha        8780.81285365 eV
  | Electrostatic energy          :        -603.54334876 Ha      -16423.25012540 eV
  | Energy correction for multipole
  | error in Hartree potential    :           0.03861067 Ha           1.05064966 eV
  | Sum of eigenvalues per atom                           :        -378.18766430 eV
  | Total energy (T->0) per atom                          :        -677.13735912 eV  <-- do not rely on this value for anything but (periodic) metals
  | Electronic free energy per atom                       :        -677.13735912 eV

  Self-consistency convergence accuracy:
  | Change of charge density      :  0.2163E-01
  | Change of sum of eigenvalues  : -0.4576E+01 eV
  | Change of total energy        :  0.8091E-02 eV

  End self-consistency iteration #     5       :  max(cpu_time)    wall_clock(cpu1)
  | Time for this iteration                    :        1.201 s           1.203 s
  | Charge density update                      :        0.392 s           0.393 s
  | Density mixing                             :        0.011 s           0.011 s
  | Hartree multipole update                   :        0.009 s           0.009 s
  | Hartree multipole summation                :        0.285 s           0.286 s
  | Integration                                :        0.501 s           0.501 s
  | Solution of K.-S. eqns.                    :        0.002 s           0.002 s
  | Total energy evaluation                    :        0.000 s           0.000 s

  Partial memory accounting:
  | Current value for overall tracked memory usage on task 0  :           0.166 MB
  | Peak value for overall tracked memory usage on task 0     :           0.692 MB after allocating gradient_basis_wave
  | Largest tracked array allocation on task 0 so far         :           0.394 MB  when allocating gradient_basis_wave
  Note:  These values currently only include a subset of arrays which are explicitly tracked.
  The "true" memory usage will be greater.
------------------------------------------------------------

------------------------------------------------------------
          Begin self-consistency iteration #    6

  Date     :  20200815, Time     :  004002.543
------------------------------------------------------------
  Evaluating new KS density.
  Integration grid: deviation in total charge (<rho> - N_e) =  -7.105427E-15
  Pulay mixing of updated and previous charge densities.

  Evaluating partitioned Hartree potential by multipole expansion.
  | Analytical far-field extrapolation by fixed multipoles:
  | Hartree multipole sum: apparent total charge =  -0.433741E-03
  Summing up the Hartree potential.
  Time summed over all CPUs for potential: real work        0.285 s, elapsed        0.285 s
  | RMS charge density error from multipole expansion :   0.255517E-01

  Integrating Hamiltonian matrix: batch-based integration.
  Time summed over all CPUs for integration: real work        0.503 s, elapsed        0.503 s

  Updating Kohn-Sham eigenvalues and eigenvectors using ELSI and the ELPA eigensolver.
  Finished Cholesky decomposition
  | Time :     0.000 s
  Finished transformation to standard eigenproblem
  | Time :     0.000 s
  Starting LAPACK eigensolver
  Finished solving standard eigenproblem
  | Time :     0.002 s
  Finished back-transformation of eigenvectors
  | Time :     0.000 s

  Obtaining occupation numbers and chemical potential using ELSI.
  | Chemical potential (Fermi level):    -2.10902482eV
  Highest occupied state (VBM) at     -6.03074558 eV
  | Occupation number:      2.00000000

  Lowest unoccupied state (CBM) at    -1.09591500 eV
  | Occupation number:      0.00000000

  Overall HOMO-LUMO gap:      4.93483058 eV.

  Total energy components:
  | Sum of eigenvalues            :        -180.70402290 Ha       -4917.20664772 eV
  | XC energy correction          :         -42.63806385 Ha       -1160.24074966 eV
  | XC potential correction       :          54.81795020 Ha        1491.67232048 eV
  | Free-atom electrostatic energy:        -146.85106848 Ha       -3996.02088865 eV
  | Hartree energy correction     :          -8.12116450 Ha        -220.98812979 eV
  | vdW energy correction         :           0.00000000 Ha           0.00000000 eV
  | Entropy correction            :           0.00000000 Ha           0.00000000 eV
  | ---------------------------
  | Total energy                  :        -323.49636952 Ha       -8802.78409535 eV
  | Total energy, T -> 0          :        -323.49636952 Ha       -8802.78409535 eV  <-- do not rely on this value for anything but (periodic) metals
  | Electronic free energy        :        -323.49636952 Ha       -8802.78409535 eV

  Derived energy quantities:
  | Kinetic energy                :         322.60206691 Ha        8778.44888306 eV
  | Electrostatic energy          :        -603.46037258 Ha      -16420.99222875 eV
  | Energy correction for multipole
  | error in Hartree potential    :           0.03882486 Ha           1.05647820 eV
  | Sum of eigenvalues per atom                           :        -378.24666521 eV
  | Total energy (T->0) per atom                          :        -677.13723810 eV  <-- do not rely on this value for anything but (periodic) metals
  | Electronic free energy per atom                       :        -677.13723810 eV

  Self-consistency convergence accuracy:
  | Change of charge density      :  0.1063E-01
  | Change of sum of eigenvalues  : -0.7670E+00 eV
  | Change of total energy        :  0.1573E-02 eV

  End self-consistency iteration #     6       :  max(cpu_time)    wall_clock(cpu1)
  | Time for this iteration                    :        1.203 s           1.214 s
  | Charge density update                      :        0.393 s           0.402 s
  | Density mixing                             :        0.012 s           0.012 s
  | Hartree multipole update                   :        0.009 s           0.009 s
  | Hartree multipole summation                :        0.285 s           0.286 s
  | Integration                                :        0.501 s           0.503 s
  | Solution of K.-S. eqns.                    :        0.002 s           0.002 s
  | Total energy evaluation                    :        0.000 s           0.000 s

  Partial memory accounting:
  | Current value for overall tracked memory usage on task 0  :           0.166 MB
  | Peak value for overall tracked memory usage on task 0     :           0.692 MB after allocating gradient_basis_wave
  | Largest tracked array allocation on task 0 so far         :           0.394 MB  when allocating gradient_basis_wave
  Note:  These values currently only include a subset of arrays which are explicitly tracked.
  The "true" memory usage will be greater.
------------------------------------------------------------

------------------------------------------------------------
          Begin self-consistency iteration #    7

  Date     :  20200815, Time     :  004003.770
------------------------------------------------------------
  Evaluating new KS density.
  Integration grid: deviation in total charge (<rho> - N_e) =  -1.421085E-14
  Pulay mixing of updated and previous charge densities.

  Evaluating partitioned Hartree potential by multipole expansion.
  | Analytical far-field extrapolation by fixed multipoles:
  | Hartree multipole sum: apparent total charge =  -0.434972E-03
  Summing up the Hartree potential.
  Time summed over all CPUs for potential: real work        0.291 s, elapsed        0.291 s
  | RMS charge density error from multipole expansion :   0.256917E-01

  Integrating Hamiltonian matrix: batch-based integration.
  Time summed over all CPUs for integration: real work        0.502 s, elapsed        0.502 s

  Updating Kohn-Sham eigenvalues and eigenvectors using ELSI and the ELPA eigensolver.
  Finished Cholesky decomposition
  | Time :     0.000 s
  Finished transformation to standard eigenproblem
  | Time :     0.000 s
  Starting LAPACK eigensolver
  Finished solving standard eigenproblem
  | Time :     0.002 s
  Finished back-transformation of eigenvectors
  | Time :     0.000 s

[...]
  |   Hirshfeld dipole moment :      0.06039789
  |   Hirshfeld second moments:     -0.00050214      -0.02894725      -0.01891254
  |                                 -0.02894725      -0.02352790       0.00890921
  |                                 -0.01891254       0.00890921      -0.01754167
  ----------------------------------------------------------------------
  | Atom    12: O
  |   Hirshfeld charge        :     -0.15351181
  |   Free atom volume        :     23.61338643
  |   Hirshfeld volume        :     21.09877378
  |   Hirshfeld dipole vector :      0.00810862       0.04416181      -0.00413396
  |   Hirshfeld dipole moment :      0.04508997
  |   Hirshfeld second moments:      0.08607954      -0.01741024       0.01924613
  |                                 -0.01741024       0.02706510       0.00676842
  |                                  0.01924613       0.00676842       0.04664518
  ----------------------------------------------------------------------
  | Atom    13: H
  |   Hirshfeld charge        :      0.15411279
  |   Free atom volume        :      9.95071624
  |   Hirshfeld volume        :      6.88436713
  |   Hirshfeld dipole vector :     -0.08611519       0.03869738      -0.02656662
  |   Hirshfeld dipole moment :      0.09807701
  |   Hirshfeld second moments:      0.11524696      -0.00152871      -0.00041322
  |                                 -0.00152871       0.07569247       0.02949910
  |                                 -0.00041322       0.02949910       0.09077809
  ----------------------------------------------------------------------


  Total energy components:
  | Sum of eigenvalues            :        -180.69750237 Ha       -4917.02921527 eV
  | XC energy correction          :         -42.63554007 Ha       -1160.17207426 eV
  | XC potential correction       :          54.81476248 Ha        1491.58557823 eV
  | Free-atom electrostatic energy:        -146.85106848 Ha       -3996.02088865 eV
  | Hartree energy correction     :          -8.12699997 Ha        -221.14692102 eV
  | vdW energy correction         :          -0.00328061 Ha          -0.08926981 eV
  | Entropy correction            :           0.00000000 Ha           0.00000000 eV
  | ---------------------------
  | Total energy                  :        -323.49962902 Ha       -8802.87279078 eV
  | Total energy, T -> 0          :        -323.49962902 Ha       -8802.87279078 eV  <-- do not rely on this value for anything but (periodic) metals
  | Electronic free energy        :        -323.49962902 Ha       -8802.87279078 eV

  Derived energy quantities:
  | Kinetic energy                :         322.56315507 Ha        8777.39003818 eV
  | Electrostatic energy          :        -603.42396341 Ha      -16420.00148488 eV
  | Energy correction for multipole
  | error in Hartree potential    :           0.03887149 Ha           1.05774702 eV
  | Sum of eigenvalues per atom                           :        -378.23301656 eV
  | Total energy (T->0) per atom                          :        -677.14406083 eV  <-- do not rely on this value for anything but (periodic) metals
  | Electronic free energy per atom                       :        -677.14406083 eV

  atomic forces [eV/Ang]:
  -----------------------
  atom #    1
   Hellmann-Feynman              :  0.105203E+01  0.193329E+00  0.136761E+01
   Ionic forces                  :  0.000000E+00  0.000000E+00  0.000000E+00
   Multipole                     :  0.804555E-01  0.264299E+00 -0.295411E+00
   Pulay + GGA                   : -0.112577E+01  0.496891E-01 -0.139284E+01
   Van der Waals                 :  0.243011E-02  0.124604E-02 -0.110382E-02
   ----------------------------------------------------------------
   Total forces(   1)            :  0.914839E-02  0.508563E+00 -0.321741E+00
  atom #    2
   Hellmann-Feynman              :  0.428244E+00 -0.306017E-01  0.363680E+00
   Ionic forces                  :  0.000000E+00  0.000000E+00  0.000000E+00
   Multipole                     :  0.156336E+00  0.294991E-01 -0.378819E-01
   Pulay + GGA                   : -0.133340E+00  0.143609E-01  0.959073E-02
   Van der Waals                 :  0.740475E-02 -0.573587E-02 -0.134820E-02
   ----------------------------------------------------------------
   Total forces(   2)            :  0.458645E+00  0.752248E-02  0.334041E+00
  atom #    3
   Hellmann-Feynman              : -0.115686E+02 -0.283219E+01  0.153681E+01
   Ionic forces                  :  0.000000E+00  0.000000E+00  0.000000E+00
   Multipole                     : -0.168111E+00  0.120568E+00 -0.821850E+00
   Pulay + GGA                   :  0.112417E+02  0.250186E+01  0.211019E+00
   Van der Waals                 :  0.406427E-02 -0.479776E-02 -0.901345E-02
   ----------------------------------------------------------------
   Total forces(   3)            : -0.491026E+00 -0.214562E+00  0.916961E+00
  atom #    4
   Hellmann-Feynman              :  0.146902E+00  0.508066E-01 -0.142920E+00
   Ionic forces                  :  0.000000E+00  0.000000E+00  0.000000E+00
   Multipole                     :  0.212482E-01  0.363892E-01 -0.921537E-01
   Pulay + GGA                   : -0.118614E+00 -0.189575E+00  0.831863E-01
   Van der Waals                 : -0.573030E-02 -0.732059E-02 -0.336850E-02
   ----------------------------------------------------------------
   Total forces(   4)            :  0.438053E-01 -0.109699E+00 -0.155256E+00
  atom #    5
   Hellmann-Feynman              :  0.234034E+00 -0.315620E-02 -0.301559E+00
   Ionic forces                  :  0.000000E+00  0.000000E+00  0.000000E+00
   Multipole                     :  0.447797E-01 -0.338194E-01 -0.112143E+00
   Pulay + GGA                   : -0.166280E+00  0.110172E+00  0.118374E+00
   Van der Waals                 :  0.423602E-02  0.876352E-02 -0.109938E-01
   ----------------------------------------------------------------
   Total forces(   5)            :  0.116770E+00  0.819604E-01 -0.306322E+00
  atom #    6
   Hellmann-Feynman              : -0.123744E+00 -0.636599E+00  0.236208E+00
   Ionic forces                  :  0.000000E+00  0.000000E+00  0.000000E+00
   Multipole                     : -0.118629E+00  0.672558E+00  0.240492E+00
   Pulay + GGA                   :  0.362779E+00 -0.488325E+00 -0.535988E+00
   Van der Waals                 : -0.337472E-02  0.400919E-02 -0.210422E-02
   ----------------------------------------------------------------
   Total forces(   6)            :  0.117032E+00 -0.448357E+00 -0.613922E-01
  atom #    7
   Hellmann-Feynman              : -0.226830E+00 -0.271908E-01 -0.429351E-01
   Ionic forces                  :  0.000000E+00  0.000000E+00  0.000000E+00
   Multipole                     : -0.119227E+00  0.486945E-01  0.318340E-01
   Pulay + GGA                   :  0.111845E+00  0.795875E-02 -0.728138E-02
   Van der Waals                 : -0.107794E-02  0.775327E-05  0.159613E-02
   ----------------------------------------------------------------
   Total forces(   7)            : -0.235289E+00  0.294702E-01 -0.167864E-01
  atom #    8
   Hellmann-Feynman              :  0.896994E-01 -0.704965E-01  0.974222E-01
   Ionic forces                  :  0.000000E+00  0.000000E+00  0.000000E+00
   Multipole                     :  0.146307E-01  0.714347E-01  0.130809E+00
   Pulay + GGA                   : -0.469714E-01 -0.461995E-01 -0.107759E+00
   Van der Waals                 : -0.284121E-02  0.112586E-01  0.828969E-03
   ----------------------------------------------------------------
   Total forces(   8)            :  0.545175E-01 -0.340027E-01  0.121301E+00
  atom #    9
   Hellmann-Feynman              :  0.103487E+00  0.922900E-01 -0.183587E+00
   Ionic forces                  :  0.000000E+00  0.000000E+00  0.000000E+00
   Multipole                     :  0.215518E-01  0.132465E+00 -0.155296E-02
   Pulay + GGA                   : -0.403842E-01 -0.646054E-01  0.819121E-01
   Van der Waals                 : -0.176582E-02  0.647361E-02  0.874476E-02
   ----------------------------------------------------------------
   Total forces(   9)            :  0.828890E-01  0.166623E+00 -0.944826E-01
  atom #   10
   Hellmann-Feynman              :  0.222895E+01  0.431684E+01  0.186405E+01
   Ionic forces                  :  0.000000E+00  0.000000E+00  0.000000E+00
   Multipole                     :  0.568060E-01 -0.144274E+00  0.251478E+00
   Pulay + GGA                   : -0.928005E+00 -0.298269E+01 -0.265287E+00
   Van der Waals                 :  0.177764E-02 -0.109892E-01  0.227965E-02
   ----------------------------------------------------------------
   Total forces(  10)            :  0.135952E+01  0.117889E+01  0.185253E+01
  atom #   11
   Hellmann-Feynman              :  0.395885E+01 -0.236635E+01  0.141263E+02
   Ionic forces                  :  0.000000E+00  0.000000E+00  0.000000E+00
   Multipole                     : -0.124740E-01 -0.487864E+00  0.837213E+00
   Pulay + GGA                   : -0.281732E+01  0.341306E+01 -0.140948E+02
   Van der Waals                 :  0.431531E-03 -0.124711E-01  0.673311E-02
   ----------------------------------------------------------------
   Total forces(  11)            :  0.112949E+01  0.546369E+00  0.875454E+00
  atom #   12
   Hellmann-Feynman              : -0.154223E+01 -0.145049E+02 -0.177063E+01
   Ionic forces                  :  0.000000E+00  0.000000E+00  0.000000E+00
   Multipole                     : -0.881321E+00 -0.159539E+01  0.288962E-01
   Pulay + GGA                   :  0.359448E+00  0.146291E+02  0.163511E+00
   Van der Waals                 : -0.212038E-02  0.353099E-02  0.836650E-02
   ----------------------------------------------------------------
   Total forces(  12)            : -0.206622E+01 -0.146764E+01 -0.156985E+01
  atom #   13
   Hellmann-Feynman              : -0.782029E+00 -0.559738E-01 -0.169864E+01
   Ionic forces                  :  0.000000E+00  0.000000E+00  0.000000E+00
   Multipole                     : -0.605189E-01  0.638572E-01 -0.349650E-01
   Pulay + GGA                   :  0.264325E+00 -0.256796E+00  0.154383E+00
   Van der Waals                 : -0.343395E-02  0.602491E-02 -0.617181E-03
   ----------------------------------------------------------------
   Total forces(  13)            : -0.581657E+00 -0.242887E+00 -0.157984E+01

  Timings for VdW correction (Tkatchenko-Scheffler 2009 or later):
  | CPU time:        0.091 s, Wall clock time:        0.093 s.
  Removing unitary transformations (pure translations, rotations) from forces on atoms.
  Atomic forces before filtering:
  | Net force on center of mass :  -0.237312E-02  0.224772E-02 -0.539587E-02 eV/A
  | Net torque on center of mass:   0.162548E-02 -0.153147E-02 -0.779134E-02 eV
  Atomic forces after filtering:
  | Net force on center of mass :  -0.892031E-16 -0.133805E-15 -0.356812E-15 eV/A
  | Net torque on center of mass:  -0.672660E-15  0.377634E-15 -0.132172E-14 eV

  Energy and forces in a compact form:
  | Total energy uncorrected      :         -0.880287279077814E+04 eV
  | Total energy corrected        :         -0.880287279077814E+04 eV  <-- do not rely on this value for anything but (periodic) metals
  | Electronic free energy        :         -0.880287279077814E+04 eV
  Total atomic forces (unitary forces cleaned) [eV/Ang]:
  |   1          0.932059745542154E-02          0.508501928180397E+00         -0.321355914080818E+00
  |   2          0.458817577336882E+00          0.776521994992573E-02          0.334349208653915E+00
  |   3         -0.490953354374160E+00         -0.214812763746750E+00          0.917379994630276E+00
  |   4          0.435946187519022E-01         -0.109913508030219E+00         -0.154886582287769E+00
  |   5          0.117008079113051E+00          0.818266221183746E-01         -0.305909137649885E+00
  |   6          0.116904304281480E+00         -0.448526998129459E+00         -0.610224067240419E-01
  |   7         -0.235423239750007E+00          0.289972805579690E-01         -0.163407024335924E-01
  |   8          0.544595041550935E-01         -0.340308658860973E-01          0.121644999128518E+00
  |   9          0.824761441861956E-01          0.166533273081926E+00         -0.941742383364491E-01
  |  10          0.136010793414654E+01          0.117875042564685E+01          0.185299003866250E+01
  |  11          0.113022979783932E+01          0.546354361642991E+00          0.875909051294206E+00
  |  12         -0.206545059176152E+01         -0.146800777339465E+01         -0.156930623609999E+01
  |  13         -0.581091371380208E+00         -0.243437201991258E+00         -0.157927807475687E+01

  ------------------------------------ 
  Start decomposition of the XC Energy 
  ------------------------------------ 
  X and C from original XC functional choice 
  Hartree-Fock Energy :          0.000000000 Ha              0.000000000 eV
  X Energy            :        -41.034541621 Ha          -1116.606689838 eV
  C Energy            :         -1.600998451 Ha            -43.565384426 eV
  Total XC Energy     :        -42.635540072 Ha          -1160.172074264 eV
  ------------------------------------ 
  LDA X and C from self-consistent density 
  X Energy LDA        :        -37.254178986 Ha          -1013.737788613 eV
  C Energy LDA        :         -3.138523032 Ha            -85.403556990 eV
  ------------------------------------ 
  End decomposition of the XC Energy 
  ------------------------------------ 

------------------------------------------------------------

------------------------------------------------------------------------------
  Final output of selected total energy values:

  The following output summarizes some interesting total energy values
  at the end of a run (AFTER all relaxation, molecular dynamics, etc.).

  | Total energy of the DFT / Hartree-Fock s.c.f. calculation      :          -8802.872790778 eV
  | Final zero-broadening corrected energy (caution - metals only) :          -8802.872790778 eV
  | For reference only, the value of 1 Hartree used in FHI-aims is :             27.211384500 eV

  Before relying on these values, please be sure to understand exactly which
  total energy value is referred to by a given number. Different objects may
  all carry the same name 'total energy'. Definitions:

  Total energy of the DFT / Hartree-Fock s.c.f. calculation:
  | Note that this energy does not include ANY quantities calculated after the
  | s.c.f. cycle, in particular not ANY RPA, MP2, etc. many-body perturbation terms.

  Final zero-broadening corrected energy:
  | For metallic systems only, a broadening of the occupation numbers at the Fermi
  | level can be extrapolated back to zero broadening by an electron-gas inspired
  | formula. For all systems that are not real metals, this value can be
  | meaningless and should be avoided.

------------------------------------------------------------------------------
  Methods described in the following list of references were used in this FHI-aims run.
  If you publish the results, please make sure to cite these reference if they apply.
  FHI-aims is an academic code, and for our developers (often, Ph.D. students
  and postdocs), scientific credit in the community is essential.
  Thank you for helping us!

  For any use of FHI-aims, please cite:

    Volker Blum, Ralf Gehrke, Felix Hanke, Paula Havu, Ville Havu,
    Xinguo Ren, Karsten Reuter, and Matthias Scheffler
    'Ab initio molecular simulations with numeric atom-centered orbitals'
    Computer Physics Communications 180, 2175-2196 (2009)
    http://dx.doi.org/10.1016/j.cpc.2009.06.022


  The scalable eigensolver library ELPA was used in your run.
  ELPA is essential especially for large systems on hundreds or thousands of CPUs.
  For ELPA, please cite:

    Andreas Marek, Volker Blum, Rainer Johanni, Ville Havu, Bruno Lang,
    Thomas Auckenthaler, Alexander Heinecke, Hans-Joachim Bungartz, and Hermann Lederer,
    'The ELPA Library - Scalable Parallel Eigenvalue Solutions
    for Electronic Structure Theory and Computational Science'
    The Journal of Physics: Condensed Matter 26, 213201 (2014).
    http://dx.doi.org/10.1088/0953-8984/26/21/213201


  The ELSI infrastructure was used in your run to solve the Kohn-Sham electronic structure.
  Please check out http://elsi-interchange.org to learn more.
  If scalability is important for your project, please acknowledge ELSI by citing:

    V. W-z. Yu, F. Corsetti, A. Garcia, W. P. Huhn, M. Jacquelin, W. Jia,
    B. Lange, L. Lin, J. Lu, W. Mi, A. Seifitokaldani, A. Vazquez-Mayagoitia,
    C. Yang, H. Yang, and V. Blum
    'ELSI: A unified software interface for Kohn-Sham electronic structure solvers'
    Computer Physics Communications 222, 267-285 (2018).
    http://dx.doi.org/10.1016/j.cpc.2017.09.007


  For the real-space grid partitioning and parallelization used in this calculation, please cite:

    Ville Havu, Volker Blum, Paula Havu, and Matthias Scheffler,
    'Efficient O(N) integration for all-electron electronic structure calculation'
    'using numerically tabulated basis functions'
    Journal of Computational Physics 228, 8367-8379 (2009).
    http://dx.doi.org/10.1016/j.jcp.2009.08.008

  Of course, there are many other important community references, e.g., those cited in the
  above references. Our list is limited to references that describe implementations in the
  FHI-aims code. The reason is purely practical (length of this list) - please credit others as well.

------------------------------------------------------------
          Leaving FHI-aims.
          Date     :  20200815, Time     :  004018.611

          Computational steps:
          | Number of self-consistency cycles          :           16
          | Number of SCF (re)initializations          :            1

          Detailed time accounting                     :  max(cpu_time)    wall_clock(cpu1)
          | Total time                                 :       23.065 s          23.810 s
          | Preparation time                           :        0.158 s           0.163 s
          | Boundary condition initalization           :        0.000 s           0.001 s
          | Grid partitioning                          :        0.114 s           0.116 s
          | Preloading free-atom quantities on grid    :        0.002 s           0.003 s
          | Free-atom superposition energy             :        0.085 s           0.085 s
          | Total time for integrations                :        8.754 s           8.768 s
          | Total time for solution of K.-S. equations :        0.037 s           0.038 s
          | Total time for density & force components  :        7.291 s           7.608 s
          | Total time for mixing                      :        0.220 s           0.221 s
          | Total time for Hartree multipole update    :        0.142 s           0.145 s
          | Total time for Hartree multipole sum       :        5.818 s           5.836 s
          | Total time for total energy evaluation     :        0.003 s           0.002 s
          | Total time for vdW correction              :        0.091 s           0.093 s

          Partial memory accounting:
          | Residual value for overall tracked memory usage across tasks :           0.000 MB (should be 0.000 MB)
          | Peak values for overall tracked memory usage (after allocating hessian_basis_wave):
          |   Minimum:        1.612 MB (on task 1)
          |   Maximum:        1.612 MB (on task 1)
          |   Average:        1.612 MB
          | Largest tracked array allocation (hessian_basis_wave):
          |   Minimum:        0.788 MB (on task 1)
          |   Maximum:        0.788 MB (on task 1)
          |   Average:        0.788 MB
          Note:  These values currently only include a subset of arrays which are explicitly tracked.
          The "true" memory usage will be greater.

          Have a nice day.
------------------------------------------------------------
