  MPI-parallelism will be employed.
------------------------------------------------------------
          Invoking FHI-aims ...
          Version 171221_1
          Compiled on 2019/09/09 at 14:39:39 on host puhti-login2.bullx.

          When using FHI-aims, please cite the following reference:

          Volker Blum, Ralf Gehrke, Felix Hanke, Paula Havu,
          Ville Havu, Xinguo Ren, Karsten Reuter, and Matthias Scheffler,
          'Ab Initio Molecular Simulations with Numeric Atom-Centered Orbitals',
          Computer Physics Communications 180, 2175-2196 (2009)

          For any questions about FHI-aims, please visit the aimsclub website
          with its forums and wiki. Contributions to both the forums and the
          wiki are warmly encouraged - they are for you, and everyone is welcome there.

------------------------------------------------------------



  Date     :  20200710, Time     :  145241.309
  Time zero on CPU 1             :   0.111270000000000E-01  s.
  Internal wall clock time zero  :           363624761.309  s.

  FHI-aims created a unique identifier for this run for later identification
  aims_uuid : A69492BA-5C2B-44D9-A753-8CA6E6DA2111

  Using        1 parallel tasks.
  Task        0 on host r18c44.bullx reporting.

  Performing system and environment tests:
  | Environment variable OMP_NUM_THREADS correctly set to 1.
  | Stacksize not measured: no C compiler
  | Checking for scalapack...
  | Testing pdtran()...
  | All pdtran() tests passed.

  Obtaining array dimensions for all initial allocations:
  
  -----------------------------------------------------------------------
  Parsing control.in (first pass over file, find array dimensions only).
  The contents of control.in will be repeated verbatim below
  unless switched off by setting 'verbatim_writeout .false.' .
  in the first line of control.in .
  -----------------------------------------------------------------------
  
  #########################################################################################
  #
  #  Volker Blum, FHI 2009 : Test run input file control.in for simple H2O
  #
  #########################################################################################
  #
  #  Physical model
  #
    xc                 pbe
    vdw_correction_hirshfeld
    spin               none
    relativistic       none
    charge             0.
  #
  #  SCF convergence
  #
    occupation_type    gaussian 0.01
    mixer              pulay
      n_max_pulay        10
      charge_mix_param   0.2
    sc_accuracy_rho    1E-5
    sc_accuracy_eev    1E-3
    sc_accuracy_etot   1E-6
    sc_accuracy_forces 1E-4
    sc_iter_limit      100
  #
  #  Relaxation
  #
  #  relax_geometry   bfgs 1.e-3
  #
  ################################################################################
  #
  #  FHI-aims code project
  #  VB, Fritz-Haber Institut, 2009
  #
  #  Suggested "light" defaults for H atom (to be pasted into control.in file)
  #  Be sure to double-check any results obtained with these settings for post-processing,
  #  e.g., with the "tight" defaults and larger basis sets.
  #
  ################################################################################
    species        H
  #     global species definitions
      nucleus             1
      mass                1.00794
  #
      l_hartree           4
  #
      cut_pot             3.5  1.5  1.0
      basis_dep_cutoff    1e-4
  #
      radial_base         24 5.0
      radial_multiplier   1
      angular_grids       specified
        division   0.2421   50
        division   0.3822  110
        division   0.4799  194
        division   0.5341  302
  #      division   0.5626  434
  #      division   0.5922  590
  #      division   0.6542  770
  #      division   0.6868 1202
  #      outer_grid  770
        outer_grid  302
  ################################################################################
  #
  #  Definition of "minimal" basis
  #
  ################################################################################
  #     valence basis states
      valence      1  s   1.
  #     ion occupancy
      ion_occ      1  s   0.5
  ################################################################################
  #
  #  Suggested additional basis functions. For production calculations,
  #  uncomment them one after another (the most important basis functions are
  #  listed first).
  #
  #  Basis constructed for dimers: 0.5 A, 0.7 A, 1.0 A, 1.5 A, 2.5 A
  #
  ################################################################################
  #  "First tier" - improvements: -1014.90 meV to -62.69 meV
       hydro 2 s 2.1
       hydro 2 p 3.5
  #  "Second tier" - improvements: -12.89 meV to -1.83 meV
  #     hydro 1 s 0.85
  #     hydro 2 p 3.7
  #     hydro 2 s 1.2
  #     hydro 3 d 7
  #  "Third tier" - improvements: -0.25 meV to -0.12 meV
  #     hydro 4 f 11.2
  #     hydro 3 p 4.8
  #     hydro 4 d 9
  #     hydro 3 s 3.2
  ################################################################################
  #
  #  FHI-aims code project
  #  VB, Fritz-Haber Institut, 2009
  #
  #  Suggested "light" defaults for C atom (to be pasted into control.in file)
  #  Be sure to double-check any results obtained with these settings for post-processing,
  #  e.g., with the "tight" defaults and larger basis sets.
  #
  ################################################################################
    species        C
  #     global species definitions
      nucleus             6
      mass                12.0107
  #
      l_hartree           4
  #
      cut_pot             3.5  1.5  1.0
      basis_dep_cutoff    1e-4
  #
      radial_base         34 5.0
      radial_multiplier   1
      angular_grids specified
        division   0.3326   50
        division   0.5710  110
        division   0.7727  194
        division   0.8772  302
  #      division   0.9334  434
  #      division   0.9625  590
  #      division   0.9924  770
  #      division   1.0230  974
  #      division   1.4589 1202
  #     outer_grid  974
       outer_grid 302
  ################################################################################
  #
  #  Definition of "minimal" basis
  #
  ################################################################################
  #     valence basis states
      valence      2  s   2.
      valence      2  p   2.
  #     ion occupancy
      ion_occ      2  s   1.
      ion_occ      2  p   1.
  ################################################################################
  #
  #  Suggested additional basis functions. For production calculations,
  #  uncomment them one after another (the most important basis functions are
  #  listed first).
  #
  #  Constructed for dimers: 1.0 A, 1.25 A, 1.5 A, 2.0 A, 3.0 A
  #
  ################################################################################
  #  "First tier" - improvements: -1214.57 meV to -155.61 meV
       hydro 2 p 1.7
       hydro 3 d 6
       hydro 2 s 4.9
  #  "Second tier" - improvements: -67.75 meV to -5.23 meV
  #     hydro 4 f 9.8
  #     hydro 3 p 5.2
  #     hydro 3 s 4.3
  #     hydro 5 g 14.4
  #     hydro 3 d 6.2
  #  "Third tier" - improvements: -2.43 meV to -0.60 meV
  #     hydro 2 p 5.6
  #     hydro 2 s 1.4
  #     hydro 3 d 4.9
  #     hydro 4 f 11.2
  #  "Fourth tier" - improvements: -0.39 meV to -0.18 meV
  #     hydro 2 p 2.1
  #     hydro 5 g 16.4
  #     hydro 4 d 13.2
  #     hydro 3 s 13.6
  #     hydro 4 f 17.6
  #  Further basis functions - improvements: -0.08 meV and below
  #     hydro 3 s 2
  #     hydro 3 p 6
  #     hydro 4 d 20
  ################################################################################
  #
  #  FHI-aims code project
  #  VB, Fritz-Haber Institut, 2009
  #
  #  Suggested "light" defaults for N atom (to be pasted into control.in file)
  #  Be sure to double-check any results obtained with these settings for post-processing,
  #  e.g., with the "tight" defaults and larger basis sets.
  #
  ################################################################################
    species        N
  #     global species definitions
      nucleus             7
      mass                14.0067
  #
      l_hartree           4
  #
      cut_pot             3.5  1.5  1.0
      basis_dep_cutoff    1e-4
  #
      radial_base         35 5.0
      radial_multiplier   1
      angular_grids       specified
        division   0.2599   50
        division   0.4601  110
        division   0.5885  194
        division   0.6503  302
  #      division   0.6939  434
  #      division   0.7396  590
  #      division   0.7632  770
  #      division   0.8122  974
  #      division   1.1604 1202
  #      outer_grid  974
        outer_grid  302
  ################################################################################
  #
  #  Definition of "minimal" basis
  #
  ################################################################################
  #     valence basis states
      valence      2  s   2.
      valence      2  p   3.
  #     ion occupancy
      ion_occ      2  s   1.
      ion_occ      2  p   2.
  ################################################################################
  #
  #  Suggested additional basis functions. For production calculations,
  #  uncomment them one after another (the most important basis functions are
  #  listed first).
  #
  #  Constructed for dimers: 1.0 A, 1.1 A, 1.5 A, 2.0 A, 3.0 A
  #
  ################################################################################
  #  "First tier" - improvements: -1193.42 meV to -220.60 meV
       hydro 2 p 1.8
       hydro 3 d 6.8
       hydro 3 s 5.8
  #  "Second tier" - improvements: -80.21 meV to -6.86 meV
  #     hydro 4 f 10.8
  #     hydro 3 p 5.8
  #     hydro 1 s 0.8
  #     hydro 5 g 16
  #     hydro 3 d 4.9
  #  "Third tier" - improvements: -4.29 meV to -0.53 meV
  #     hydro 3 s 16
  #     ionic 2 p auto
  #     hydro 3 d 6.6
  #     hydro 4 f 11.6
  #  "Fourth tier" - improvements: -0.75 meV to -0.25 meV
  #     hydro 2 p 4.5
  #     hydro 2 s 2.4
  #     hydro 5 g 14.4
  #     hydro 4 d 14.4
  #     hydro 4 f 16.8
  # Further basis functions - -0.21 meV and below
  #     hydro 3 p 14.8
  #     hydro 3 s 4.4
  #     hydro 3 d 19.6
  #     hydro 5 g 12.8
  ################################################################################
  #
  #  FHI-aims code project
  #  VB, Fritz-Haber Institut, 2009
  #
  #  Suggested "light" defaults for O atom (to be pasted into control.in file)
  #  Be sure to double-check any results obtained with these settings for post-processing,
  #  e.g., with the "tight" defaults and larger basis sets.
  #
  ################################################################################
    species        O
  #     global species definitions
      nucleus             8
      mass                15.9994
  #
      l_hartree           4
  #
      cut_pot             3.5  1.5  1.0
      basis_dep_cutoff    1e-4
  #
      radial_base         36 5.0
      radial_multiplier   1
       angular_grids specified
        division   0.2659   50
        division   0.4451  110
        division   0.6052  194
        division   0.7543  302
  #      division   0.8014  434
  #      division   0.8507  590
  #      division   0.8762  770
  #      division   0.9023  974
  #      division   1.2339 1202
  #      outer_grid 974
        outer_grid 302
  ################################################################################
  #
  #  Definition of "minimal" basis
  #
  ################################################################################
  #     valence basis states
      valence      2  s   2.
      valence      2  p   4.
  #     ion occupancy
      ion_occ      2  s   1.
      ion_occ      2  p   3.
  ################################################################################
  #
  #  Suggested additional basis functions. For production calculations,
  #  uncomment them one after another (the most important basis functions are
  #  listed first).
  #
  #  Constructed for dimers: 1.0 A, 1.208 A, 1.5 A, 2.0 A, 3.0 A
  #
  ################################################################################
  #  "First tier" - improvements: -699.05 meV to -159.38 meV
       hydro 2 p 1.8
       hydro 3 d 7.6
       hydro 3 s 6.4
  #  "Second tier" - improvements: -49.91 meV to -5.39 meV
  #     hydro 4 f 11.6
  #     hydro 3 p 6.2
  #     hydro 3 d 5.6
  #     hydro 5 g 17.6
  #     hydro 1 s 0.75
  #  "Third tier" - improvements: -2.83 meV to -0.50 meV
  #     ionic 2 p auto
  #     hydro 4 f 10.8
  #     hydro 4 d 4.7
  #     hydro 2 s 6.8
  #  "Fourth tier" - improvements: -0.40 meV to -0.12 meV
  #     hydro 3 p 5
  #     hydro 3 s 3.3
  #     hydro 5 g 15.6
  #     hydro 4 f 17.6
  #     hydro 4 d 14
  # Further basis functions - -0.08 meV and below
  #     hydro 3 s 2.1
  #     hydro 4 d 11.6
  #     hydro 3 p 16
  #     hydro 2 s 17.2
  
  -----------------------------------------------------------------------
  Completed first pass over input file control.in .
  -----------------------------------------------------------------------
  
  
  -----------------------------------------------------------------------
  Parsing geometry.in (first pass over file, find array dimensions only).
  The contents of geometry.in will be repeated verbatim below
  unless switched off by setting 'verbatim_writeout .false.' .
  in the first line of geometry.in .
  -----------------------------------------------------------------------
  
  atom  0.00000 0.00000 0.00000 C
  atom  1.09300 0.00000 0.00000 H
  atom  -0.47961 0.00000 -1.41207 N
  atom  -1.19934 0.71667 -1.51305 H
  atom  0.30756 0.20313 -2.02463 H
  atom  -0.49584 1.26211 0.72868 C
  atom  -1.58789 1.28919 0.74431 H
  atom  -0.13407 1.27425 1.75947 H
  atom  -0.13407 2.16087 0.22380 H
  atom  -0.39425 -1.28861 0.74398 C
  atom  -0.10189 -1.56493 1.88303 O
  atom  -1.10210 -2.13717 0.06896 O
  atom  -0.88306 -1.82503 -0.82522 H
  
  -----------------------------------------------------------------------
  Completed first pass over input file geometry.in .
  -----------------------------------------------------------------------
  

  Basic array size parameters:
  | Number of species                 :        4
  | Number of atoms                   :       13
  | Max. basis fn. angular momentum   :        2
  | Max. atomic/ionic basis occupied n:        2
  | Max. number of basis fn. types    :        2
  | Max. radial fns per species/type  :        3
  | Max. logarithmic grid size        :     1301
  | Max. radial integration grid size :       36
  | Max. angular integration grid size:      302
  | Max. angular grid division number :        8
  | Radial grid for Hartree potential :     1301
  | Number of spin channels           :        1

------------------------------------------------------------
          Reading file control.in.
------------------------------------------------------------
  XC: Using PBE gradient-corrected functionals.
  Spin treatment: No spin polarisation.
  Non-relativistic treatment of kinetic energy.
  Charge =   0.000000E+00: Neutral system requested explicitly.
  Occupation type: Gaussian broadening, width =   0.100000E-01 eV.
  Using pulay charge density mixing.
  Pulay mixing - number of memorized iterations:   10
  Charge density mixing - mixing parameter:     0.2000
  Convergence accuracy of self-consistent charge density:  0.1000E-04
  Convergence accuracy of sum of eigenvalues:  0.1000E-02
  Convergence accuracy of total energy:  0.1000E-05
  Convergence accuracy of forces:  0.1000E-03
  Maximum number of s.-c. iterations  :   100
 
  Reading configuration options for species H                   .
  | Found nuclear charge :   1.0000
  | Found atomic mass :    1.00794000000000      amu
  | Found l_max for Hartree potential  :   4
  | Found cutoff potl. onset [A], width [A], scale factor :    3.50000    1.50000    1.00000
  | Threshold for basis-dependent cutoff potential is   0.100000E-03
  | Found data for basic radial integration grid :    24 points, outermost radius =    5.000 A
  | Found multiplier for basic radial grid :   1
  | Found angular grid specification: user-specified.
  | Specified grid contains     5 separate shells.
  | Check grid settings after all constraints further below.
  | Found free-atom valence shell :  1 s   1.000
  | No ionic wave fns used. Skipping ion_occ.
  | Found hydrogenic basis function :  2 s   2.100
  | Found hydrogenic basis function :  2 p   3.500
  Species H                   : Missing cutoff potential type.
  Defaulting to exp(1/x)/(1-x)^2 type cutoff potential.
  Species H : No 'logarithmic' tag. Using default grid for free atom:
  | Default logarithmic grid data [bohr] : 0.1000E-03 0.1000E+03 0.1012E+01
  Species H : On-site basis accuracy parameter (for Gram-Schmidt orthonormalisation) not specified.
  Using default value basis_acc =  0.1000000E-03.
  Species H                   : Using default innermost maximum threshold i_radial=  2 for radial functions.
  Species H                   : Default cutoff onset for free atom density etc. : 0.35000000E+01 AA.
  Species H                   : Basic radial grid will be enhanced according to radial_multiplier =   1, to contain    24 grid points.
 
  Reading configuration options for species C                   .
  | Found nuclear charge :   6.0000
  | Found atomic mass :    12.0107000000000      amu
  | Found l_max for Hartree potential  :   4
  | Found cutoff potl. onset [A], width [A], scale factor :    3.50000    1.50000    1.00000
  | Threshold for basis-dependent cutoff potential is   0.100000E-03
  | Found data for basic radial integration grid :    34 points, outermost radius =    5.000 A
  | Found multiplier for basic radial grid :   1
  | Found angular grid specification: user-specified.
  | Specified grid contains     5 separate shells.
  | Check grid settings after all constraints further below.
  | Found free-atom valence shell :  2 s   2.000
  | Found free-atom valence shell :  2 p   2.000
  | No ionic wave fns used. Skipping ion_occ.
  | No ionic wave fns used. Skipping ion_occ.
  | Found hydrogenic basis function :  2 p   1.700
  | Found hydrogenic basis function :  3 d   6.000
  | Found hydrogenic basis function :  2 s   4.900
  Species C                   : Missing cutoff potential type.
  Defaulting to exp(1/x)/(1-x)^2 type cutoff potential.
  Species C : No 'logarithmic' tag. Using default grid for free atom:
  | Default logarithmic grid data [bohr] : 0.1000E-03 0.1000E+03 0.1012E+01
  Species C : On-site basis accuracy parameter (for Gram-Schmidt orthonormalisation) not specified.
  Using default value basis_acc =  0.1000000E-03.
  Species C                   : Using default innermost maximum threshold i_radial=  2 for radial functions.
  Species C                   : Default cutoff onset for free atom density etc. : 0.35000000E+01 AA.
  Species C                   : Basic radial grid will be enhanced according to radial_multiplier =   1, to contain    34 grid points.
 
  Reading configuration options for species N                   .
  | Found nuclear charge :   7.0000
  | Found atomic mass :    14.0067000000000      amu
  | Found l_max for Hartree potential  :   4
  | Found cutoff potl. onset [A], width [A], scale factor :    3.50000    1.50000    1.00000
  | Threshold for basis-dependent cutoff potential is   0.100000E-03
  | Found data for basic radial integration grid :    35 points, outermost radius =    5.000 A
  | Found multiplier for basic radial grid :   1
  | Found angular grid specification: user-specified.
  | Specified grid contains     5 separate shells.
  | Check grid settings after all constraints further below.
  | Found free-atom valence shell :  2 s   2.000
  | Found free-atom valence shell :  2 p   3.000
  | No ionic wave fns used. Skipping ion_occ.
  | No ionic wave fns used. Skipping ion_occ.
  | Found hydrogenic basis function :  2 p   1.800
  | Found hydrogenic basis function :  3 d   6.800
  | Found hydrogenic basis function :  3 s   5.800
  Species N                   : Missing cutoff potential type.
  Defaulting to exp(1/x)/(1-x)^2 type cutoff potential.
  Species N : No 'logarithmic' tag. Using default grid for free atom:
  | Default logarithmic grid data [bohr] : 0.1000E-03 0.1000E+03 0.1012E+01
  Species N : On-site basis accuracy parameter (for Gram-Schmidt orthonormalisation) not specified.
  Using default value basis_acc =  0.1000000E-03.
  Species N                   : Using default innermost maximum threshold i_radial=  2 for radial functions.
  Species N                   : Default cutoff onset for free atom density etc. : 0.35000000E+01 AA.
  Species N                   : Basic radial grid will be enhanced according to radial_multiplier =   1, to contain    35 grid points.
 
  Reading configuration options for species O                   .
  | Found nuclear charge :   8.0000
  | Found atomic mass :    15.9994000000000      amu
  | Found l_max for Hartree potential  :   4
  | Found cutoff potl. onset [A], width [A], scale factor :    3.50000    1.50000    1.00000
  | Threshold for basis-dependent cutoff potential is   0.100000E-03
  | Found data for basic radial integration grid :    36 points, outermost radius =    5.000 A
  | Found multiplier for basic radial grid :   1
  | Found angular grid specification: user-specified.
  | Specified grid contains     5 separate shells.
  | Check grid settings after all constraints further below.
  | Found free-atom valence shell :  2 s   2.000
  | Found free-atom valence shell :  2 p   4.000
  | No ionic wave fns used. Skipping ion_occ.
  | No ionic wave fns used. Skipping ion_occ.
  | Found hydrogenic basis function :  2 p   1.800
  | Found hydrogenic basis function :  3 d   7.600
  | Found hydrogenic basis function :  3 s   6.400
  Species O                   : Missing cutoff potential type.
  Defaulting to exp(1/x)/(1-x)^2 type cutoff potential.
  Species O : No 'logarithmic' tag. Using default grid for free atom:
  | Default logarithmic grid data [bohr] : 0.1000E-03 0.1000E+03 0.1012E+01
  Species O : On-site basis accuracy parameter (for Gram-Schmidt orthonormalisation) not specified.
  Using default value basis_acc =  0.1000000E-03.
  Species O                   : Using default innermost maximum threshold i_radial=  2 for radial functions.
  Species O                   : Default cutoff onset for free atom density etc. : 0.35000000E+01 AA.
  Species O                   : Basic radial grid will be enhanced according to radial_multiplier =   1, to contain    36 grid points.
 
  Finished reading input file 'control.in'. Consistency checks are next.
 
  MPI_IN_PLACE appears to work with this MPI implementation.
  | Keeping use_mpi_in_place .true. (see manual).
  Target number of points in a grid batch is not set. Defaulting to  100
  Method for grid partitioning is not set. Defaulting to parallel hash+maxmin partitioning.
  Batch size limit is not set. Defaulting to    200
  By default, will store active basis functions for each batch.
  If in need of memory, prune_basis_once .false. can be used to disable this option.
  communication_type for Hartree potential was not specified.
  Defaulting to calc_hartree .
  Pulay mixer: Number of initial linear mixing iterations not set.
  Defaulting to    0 iterations.
  Work space size for distributed Hartree potential not set.
  Defaulting to   0.200000E+03 MB.
  Algorithm-dependent basis array size parameters:
  | n_max_pulay                         :       10
  Presetting      1001 iterations before the initial mixing cycle
  is restarted anyway using the sc_init_iter criterion / keyword.
  Presetting a factor      1.000 between actual scf density residual
  and density convergence criterion sc_accuracy_rho below which sc_init_iter
  takes no effect.
  Geometry relaxation not requested: no relaxation will be performed.
  Handling of forces: Unphysical translation and rotation will be removed from forces.
  No accuracy limit for integral partition fn. given. Defaulting to  0.1000E-14.
  No threshold value for u(r) in integrations given. Defaulting to  0.1000E-05.
  No accuracy for occupation numbers given. Defaulting to  0.1000E-12.
  No threshold value for occupation numbers given. Defaulting to  0.0000E+00.
  No accuracy for fermi level given. Defaulting to  0.1000E-19.
  Maximum # of iterations to find E_F not set. Defaulting to  200.
  Preferred method for the eigenvalue solver ('KS_method') not specified in 'control.in'.
  Defaulting to serial version, 'lapack_fast'.
  Will not use alltoall communication since running on < 1024 CPUs.
  Threshold for basis singularities not set.
  Default threshold for basis singularities:  0.1000E-04
  partition_type (choice of integration weights) for integrals was not specified.
  | Using a version of the partition function of Stratmann and coworkers ('stratmann_smoother').
  | At each grid point, the set of atoms used to build the partition table is smoothly restricted to
  | only those atoms whose free-atom density would be non-zero at that grid point.
  Partitioning for Hartree potential was not defined. Using partition_type for integrals.
  | Adjusted default value of keyword multip_moments_threshold to:       0.10000000E-11
  | This value may affect high angular momentum components of the Hartree potential in periodic systems.
  No q(lm)/r^(l+1) cutoff set for long-range Hartree potential.
  | Using default value of  0.100000E-09 .
  | Verify using the multipole_threshold keyword.
  Defaulting to new monopole extrapolation.
  Density update method: automatic selection selected.
------------------------------------------------------------


------------------------------------------------------------
          Reading geometry description geometry.in.
------------------------------------------------------------
  Input structure read successfully.
  The structure contains       13 atoms,  and a total of         48.000 electrons.

  Input geometry:
  | No unit cell requested.
  | Atomic structure:
  |       Atom                x [A]            y [A]            z [A]
  |    1: Species C             0.00000000        0.00000000        0.00000000
  |    2: Species H             1.09300000        0.00000000        0.00000000
  |    3: Species N            -0.47961000        0.00000000       -1.41207000
  |    4: Species H            -1.19934000        0.71667000       -1.51305000
  |    5: Species H             0.30756000        0.20313000       -2.02463000
  |    6: Species C            -0.49584000        1.26211000        0.72868000
  |    7: Species H            -1.58789000        1.28919000        0.74431000
  |    8: Species H            -0.13407000        1.27425000        1.75947000
  |    9: Species H            -0.13407000        2.16087000        0.22380000
  |   10: Species C            -0.39425000       -1.28861000        0.74398000
  |   11: Species O            -0.10189000       -1.56493000        1.88303000
  |   12: Species O            -1.10210000       -2.13717000        0.06896000
  |   13: Species H            -0.88306000       -1.82503000       -0.82522000
  |

  | The smallest distance between any two atoms is         0.97209453 AA.
  |
  | The first atom of this pair is atom number                     12 .
  | The second atom of this pair is atom number                    13 .

  Number of empty states per atom not set in control.in - providing a guess from actual geometry.
  | Total number of empty states used during s.c.f. cycle:       29
  If you use a very high smearing, use empty_states (per atom!) in control.in to increase this value.

  Structure-dependent array size parameters: 
  | Maximum number of distinct radial functions  :       21
  | Maximum number of basis functions            :      119
  | Number of Kohn-Sham states (occupied + empty):       53
------------------------------------------------------------

------------------------------------------------------------
          Preparing all fixed parts of the calculation.
------------------------------------------------------------
  Determining machine precision:
    2.225073858507201E-308
  Setting up grids for atomic and cluster calculations.

  Creating wave function, potential, and density for free atoms.

  Species: H

  List of occupied orbitals and eigenvalues:
    n    l              occ      energy [Ha]    energy [eV]
    1    0           1.0000        -0.237589        -6.4651


  Species: C

  List of occupied orbitals and eigenvalues:
    n    l              occ      energy [Ha]    energy [eV]
    1    0           2.0000       -10.038835      -273.1706
    2    0           2.0000        -0.502696       -13.6791
    2    1           2.0000        -0.191971        -5.2238


  Species: N

  List of occupied orbitals and eigenvalues:
    n    l              occ      energy [Ha]    energy [eV]
    1    0           2.0000       -14.128000      -384.4424
    2    0           2.0000        -0.681077       -18.5330
    2    1           3.0000        -0.259788        -7.0692


  Species: O

  List of occupied orbitals and eigenvalues:
    n    l              occ      energy [Ha]    energy [eV]
    1    0           2.0000       -18.898188      -514.2459
    2    0           2.0000        -0.878505       -23.9053
    2    1           4.0000        -0.331779        -9.0282

  Creating fixed part of basis set: Ionic, confined, hydrogenic.
 
  H                    hydrogenic:
 
  List of hydrogenic basis orbitals: 
    n    l      effective z      eigenvalue [eV]  inner max. [A]     outer max. [A]     outer radius [A]   
    2    0         2.100000       -14.9728           0.193243           1.317208           4.583499
    2    1         3.500000       -41.6669           0.602369           0.602369           3.723403
 
 
  C                    hydrogenic:
 
  List of hydrogenic basis orbitals: 
    n    l      effective z      eigenvalue [eV]  inner max. [A]     outer max. [A]     outer radius [A]   
    2    1         1.700000        -9.7616           1.230570           1.230570           4.607917
    3    2         6.000000       -54.4224           0.792453           0.792453           3.883070
    2    0         4.900000       -81.6679           0.082559           0.562749           3.078220
 
 
  N                    hydrogenic:
 
  List of hydrogenic basis orbitals: 
    n    l      effective z      eigenvalue [eV]  inner max. [A]     outer max. [A]     outer radius [A]   
    2    1         1.800000       -10.9749           1.177451           1.177451           4.573712
    3    2         6.800000       -69.9026           0.704619           0.704619           3.538137
    3    0         5.800000       -50.8545           0.067388           1.191934           4.250239
 
 
  O                    hydrogenic:
 
  List of hydrogenic basis orbitals: 
    n    l      effective z      eigenvalue [eV]  inner max. [A]     outer max. [A]     outer radius [A]   
    2    1         1.800000       -10.9749           1.164242           1.164242           4.578029
    3    2         7.600000       -87.3180           0.624125           0.624125           3.251020
    3    0         6.400000       -61.9207           0.061167           1.081902           4.001998
 

  Adding cutoff potential to free-atom effective potential.
  Creating atomic-like basis functions for current effective potential.

  Species H                   :

  List of atomic basis orbitals and eigenvalues:
    n    l      energy [Ha]    energy [eV]    outer radius [A]
    1    0        -0.237589        -6.4651       4.527807


  Species C                   :

  List of atomic basis orbitals and eigenvalues:
    n    l      energy [Ha]    energy [eV]    outer radius [A]
    1    0       -10.038835      -273.1706       1.934409
    2    0        -0.502696       -13.6791       4.496620
    2    1        -0.191971        -5.2238       4.551928


  Species N                   :

  List of atomic basis orbitals and eigenvalues:
    n    l      energy [Ha]    energy [eV]    outer radius [A]
    1    0       -14.128000      -384.4424       1.637919
    2    0        -0.681077       -18.5330       4.463241
    2    1        -0.259788        -7.0692       4.518138


  Species O                   :

  List of atomic basis orbitals and eigenvalues:
    n    l      energy [Ha]    energy [eV]    outer radius [A]
    1    0       -18.898188      -514.2459       1.415765
    2    0        -0.878505       -23.9053       4.413171
    2    1        -0.331779        -9.0282       4.522403

  Assembling full basis from fixed parts.
  | Species H :   atomic orbital   1 s accepted.
  | Species H :    hydro orbital   2 s accepted.
  | Species H :    hydro orbital   2 p accepted.
  | Species C :   atomic orbital   1 s accepted.
  | Species C :    hydro orbital   2 s accepted.
  | Species C :   atomic orbital   2 s accepted.
  | Species C :   atomic orbital   2 p accepted.
  | Species C :    hydro orbital   2 p accepted.
  | Species C :    hydro orbital   3 d accepted.
  | Species N :   atomic orbital   1 s accepted.
  | Species N :    hydro orbital   3 s accepted.
  | Species N :   atomic orbital   2 s accepted.
  | Species N :   atomic orbital   2 p accepted.
  | Species N :    hydro orbital   2 p accepted.
  | Species N :    hydro orbital   3 d accepted.
  | Species O :   atomic orbital   1 s accepted.
  | Species O :    hydro orbital   3 s accepted.
  | Species O :   atomic orbital   2 s accepted.
  | Species O :   atomic orbital   2 p accepted.
  | Species O :    hydro orbital   2 p accepted.
  | Species O :    hydro orbital   3 d accepted.
 
  Basis size parameters after reduction:
  | Total number of radial functions:       21
  | Total number of basis functions :      119
 
  Per-task memory consumption for arrays in subroutine allocate_ext:
  |           5.250512MB.
  Testing on-site integration grid accuracy.
  |  Species  Function  <phi|h_atom|phi> (log., in eV)  <phi|h_atom|phi> (rad., in eV)
           1        1                 -6.4663192853                 -6.4651273558
           1        2                 13.7111246313                 13.7170609718
           1        3                 25.2673269279                 25.2674696378
           2        4               -273.1705927641               -273.1705631568
           2        5                -10.7109323383                -10.7107120029
           2        6                 17.4381822266                 17.4352413244
           2        7                 -5.2255326521                 -5.2270484734
           2        8                  8.6835629259                  8.6603288385
           2        9                 27.4952418996                 27.4953360207
           3       10               -384.4424306495               -384.4423701208
           3       11                 12.5842251816                 12.5842222903
           3       12                -15.7264628251                -15.7264433455
           3       13                 -7.0696854293                 -7.0701769954
           3       14                  8.8090390882                  8.7901077751
           3       15                 35.9586762123                 35.9588528632
           4       16               -514.2458688638               -514.2457643834
           4       17                 15.1795651126                 15.1795290741
           4       18                -21.5359799773                -21.5360846186
           4       19                 -9.0283069236                 -9.0284644067
           4       20                  8.3027758564                  8.2834874195
           4       21                 45.8339351984                 45.8338762259

  Preparing densities etc. for the partition functions (integrals / Hartree potential).

  Preparations completed.
  max(cpu_time)          :      0.146 s.
  Wall clock time (cpu1) :      0.148 s.
------------------------------------------------------------

------------------------------------------------------------
          Begin self-consistency loop: Initialization.

          Date     :  20200710, Time     :  145241.470
------------------------------------------------------------

  Initializing index lists of integration centers etc. from given atomic structure:
  | Number of centers in hartree potential         :        13
  | Number of centers in hartree multipole         :        13
  | Number of centers in electron density summation:        13
  | Number of centers in basis integrals           :        13
  | Number of centers in integrals                 :        13
  | Number of centers in hamiltonian               :        13
  Partitioning the integration grid into batches with parallel hashing+maxmin method.
  | Number of batches:      963
  | Maximal batch size:     139
  | Minimal batch size:      66
  | Average batch size:      72.322
  | Standard deviation of batch sizes:      16.587

  Integration load balanced across     1 MPI tasks.
  Work distribution over tasks is as follows:
  Task     0 has      69646 integration points.
  Initializing partition tables, free-atom densities, potentials, etc. across the integration grid (initialize_grid_storage).
  | initialize_grid_storage: Actual outermost partition radius vs. multipole_radius_free
  | (-- VB: in principle, multipole_radius_free should be larger, hence this output)
  | Species        1: Confinement radius =              4.999999999999999 AA, multipole_radius_free =              5.054417573612229 AA.
  | Species        1: outer_partition_radius set to              5.054417573612229 AA .
  | Species        2: Confinement radius =              4.999999999999999 AA, multipole_radius_free =              5.019602836301480 AA.
  | Species        2: outer_partition_radius set to              5.019602836301480 AA .
  | Species        3: Confinement radius =              4.999999999999999 AA, multipole_radius_free =              5.043624274424571 AA.
  | Species        3: outer_partition_radius set to              5.043624274424571 AA .
  | Species        4: Confinement radius =              4.999999999999999 AA, multipole_radius_free =              5.048384829883283 AA.
  | Species        4: outer_partition_radius set to              5.048384829883283 AA .
  | Original list of interatomic distances with          13 x         13 entries is created.
  | Net number of integration points:    69646
  | of which are non-zero points    :    59387
  Renormalizing the initial density to the exact electron count on the 3D integration grid.
  | Initial density: Formal number of electrons (from input files) :      48.0000000000
  | Integrated number of electrons on 3D grid     :      47.9998626890
  | Charge integration error                      :      -0.0001373110
  | Normalization factor for density and gradient :       1.0000028607
  Obtaining max. number of non-zero basis functions in each batch (get_n_compute_maxes).
  | Maximal number of non-zero basis functions:      119 in task     0
  Selecting the method for density update.
  Loop over occupied states selected for charge density update.
  Allocating        0.050 MB for KS_eigenvector
  Integrating Hamiltonian matrix: batch-based integration.
  Time summed over all CPUs for integration: real work        0.495 s, elapsed        0.495 s
  Integrating overlap matrix.
  Time summed over all CPUs for integration: real work        0.212 s, elapsed        0.212 s

  Updating Kohn-Sham eigenvalues and eigenvectors using ELSI and the ELPA eigensolver.
  Overlap matrix is nonsingular
  | Lowest eigenvalue of overlap  :  0.45E-02
  | Highest eigenvalue of overlap :  0.63E+01
  Finished singularity check of overlap matrix
  | Time :     0.002 s
  Finished Cholesky decomposition
  | Time :     0.000 s
  Finished transformation to standard eigenproblem
  | Time :     0.000 s
  Starting LAPACK eigensolver
  Finished solving standard eigenproblem
  | Time :     0.002 s
  Finished back-transformation of eigenvectors
  | Time :     0.000 s

  Obtaining occupation numbers and chemical potential using ELSI.
  | Chemical potential (Fermi level):    -9.65757640eV
  Writing Kohn-Sham eigenvalues.

  State    Occupation    Eigenvalue [Ha]    Eigenvalue [eV]
      1       2.00000         -19.007490         -517.22011
      2       2.00000         -18.977123         -516.39380
      3       2.00000         -14.247382         -387.69098
      4       2.00000         -10.166898         -276.65538
      5       2.00000         -10.141942         -275.97629
      6       2.00000         -10.131884         -275.70258
      7       2.00000          -1.181332          -32.14568
      8       2.00000          -1.101120          -29.96300
      9       2.00000          -0.993703          -27.04005
     10       2.00000          -0.859241          -23.38114
     11       2.00000          -0.756454          -20.58416
     12       2.00000          -0.680733          -18.52370
     13       2.00000          -0.629946          -17.14171
     14       2.00000          -0.613717          -16.70009
     15       2.00000          -0.589233          -16.03385
     16       2.00000          -0.558270          -15.19129
     17       2.00000          -0.554237          -15.08155
     18       2.00000          -0.522630          -14.22148
     19       2.00000          -0.521147          -14.18112
     20       2.00000          -0.501557          -13.64807
     21       2.00000          -0.466354          -12.69014
     22       2.00000          -0.428163          -11.65090
     23       2.00000          -0.422169          -11.48781
     24       2.00000          -0.385256          -10.48334
     25       0.00000          -0.149841           -4.07737
     26       0.00000          -0.063547           -1.72921
     27       0.00000          -0.028321           -0.77066
     28       0.00000          -0.011028           -0.30008
     29       0.00000           0.005151            0.14018
     30       0.00000           0.011826            0.32181
     31       0.00000           0.017412            0.47381
     32       0.00000           0.027986            0.76155
     33       0.00000           0.035270            0.95974
     34       0.00000           0.075815            2.06304
     35       0.00000           0.093405            2.54167
     36       0.00000           0.131597            3.58093
     37       0.00000           0.166770            4.53805
     38       0.00000           0.198602            5.40423
     39       0.00000           0.202743            5.51693
     40       0.00000           0.224533            6.10986
     41       0.00000           0.253947            6.91025
     42       0.00000           0.268524            7.30690
     43       0.00000           0.291357            7.92823
     44       0.00000           0.300216            8.16929
     45       0.00000           0.339535            9.23923
     46       0.00000           0.356178            9.69210
     47       0.00000           0.364188            9.91005
     48       0.00000           0.394572           10.73685
     49       0.00000           0.417137           11.35087
     50       0.00000           0.497072           13.52603
     51       0.00000           0.508216           13.82925
     52       0.00000           0.541056           14.72287
     53       0.00000           0.562431           15.30452

  Highest occupied state (VBM) at    -10.48333690 eV
  | Occupation number:      2.00000000

  Lowest unoccupied state (CBM) at    -4.07737059 eV
  | Occupation number:      0.00000000

  Overall HOMO-LUMO gap:      6.40596631 eV.
  Calculating total energy contributions from superposition of free atom densities.

  Total energy components:
  | Sum of eigenvalues            :        -188.87596051 Ha       -5139.57638426 eV
  | XC energy correction          :         -41.80001379 Ha       -1137.43624731 eV
  | XC potential correction       :          53.73562051 Ha        1462.22063108 eV
  | Free-atom electrostatic energy:        -146.83134483 Ha       -3995.48418089 eV
  | Hartree energy correction     :           0.00000000 Ha           0.00000000 eV
  | vdW energy correction         :           0.00000000 Ha           0.00000000 eV
  | Entropy correction            :           0.00000000 Ha           0.00000000 eV
  | ---------------------------
  | Total energy                  :        -323.77169862 Ha       -8810.27618137 eV
  | Total energy, T -> 0          :        -323.77169862 Ha       -8810.27618137 eV  <-- do not rely on this value for anything but (periodic) metals
  | Electronic free energy        :        -323.77169862 Ha       -8810.27618137 eV

  Derived energy quantities:
  | Kinetic energy                :         320.50808256 Ha        8721.46866977 eV
  | Electrostatic energy          :        -602.47976739 Ha      -16394.30860384 eV
  | Energy correction for multipole
  | error in Hartree potential    :           0.00000000 Ha           0.00000000 eV
  | Sum of eigenvalues per atom                           :        -395.35202956 eV
  | Total energy (T->0) per atom                          :        -677.71355241 eV  <-- do not rely on this value for anything but (periodic) metals
  | Electronic free energy per atom                       :        -677.71355241 eV
  Initialize hartree_potential_storage
  Max. number of atoms included in rho_multipole:           13

  End scf initialization - timings             :  max(cpu_time)    wall_clock(cpu1)
  | Time for scf. initialization               :        1.150 s           1.152 s
  | Boundary condition initialization          :        0.000 s           0.000 s
  | Integration                                :        0.707 s           0.707 s
  | Solution of K.-S. eqns.                    :        0.004 s           0.004 s
  | Grid partitioning                          :        0.111 s           0.111 s
  | Preloading free-atom quantities on grid    :        0.002 s           0.002 s
  | Free-atom superposition energy             :        0.084 s           0.084 s
  | Total energy evaluation                    :        0.000 s           0.001 s

  Partial memory accounting:
  | Current value for overall tracked memory usage on task 0  :           0.165 MB
  | Peak value for overall tracked memory usage on task 0     :           0.678 MB after allocating wave
  | Largest tracked array allocation on task 0 so far         :           0.132 MB  when allocating H_times_psi
  Note:  These values currently only include a subset of arrays which are explicitly tracked.
  The "true" memory usage will be greater.
------------------------------------------------------------

------------------------------------------------------------
          Begin self-consistency iteration #    1

  Date     :  20200710, Time     :  145242.622
------------------------------------------------------------
  Evaluating new KS density.
  Integration grid: deviation in total charge (<rho> - N_e) =   2.131628E-14
  Pulay mixing of updated and previous charge densities.

  Evaluating partitioned Hartree potential by multipole expansion.
  | Analytical far-field extrapolation by fixed multipoles:
  | Hartree multipole sum: apparent total charge =  -0.240254E-03
  Summing up the Hartree potential.
  Time summed over all CPUs for potential: real work        0.283 s, elapsed        0.283 s
  | RMS charge density error from multipole expansion :   0.588921E-02

  Integrating Hamiltonian matrix: batch-based integration.
  Time summed over all CPUs for integration: real work        0.497 s, elapsed        0.497 s

  Updating Kohn-Sham eigenvalues and eigenvectors using ELSI and the ELPA eigensolver.
  Finished Cholesky decomposition
  | Time :     0.000 s
  Finished transformation to standard eigenproblem
  | Time :     0.000 s
  Starting LAPACK eigensolver
  Finished solving standard eigenproblem
  | Time :     0.002 s
  Finished back-transformation of eigenvectors
  | Time :     0.000 s

  Obtaining occupation numbers and chemical potential using ELSI.
  | Chemical potential (Fermi level):    -4.36474878eV
  Writing Kohn-Sham eigenvalues.

  State    Occupation    Eigenvalue [Ha]    Eigenvalue [eV]
      1       2.00000         -18.899083         -514.27020
      2       2.00000         -18.827749         -512.32911
      3       2.00000         -14.113600         -384.05060
      4       2.00000         -10.109738         -275.09997
      5       2.00000         -10.068693         -273.98307
      6       2.00000         -10.035342         -273.07555
      7       2.00000          -1.126756          -30.66060
      8       2.00000          -1.031656          -28.07280
      9       2.00000          -0.932791          -25.38253
     10       2.00000          -0.797661          -21.70547
     11       2.00000          -0.705909          -19.20876
     12       2.00000          -0.630793          -17.16476
     13       2.00000          -0.581834          -15.83252
     14       2.00000          -0.557429          -15.16840
     15       2.00000          -0.529995          -14.42188
     16       2.00000          -0.503292          -13.69526
     17       2.00000          -0.486497          -13.23827
     18       2.00000          -0.466049          -12.68184
     19       2.00000          -0.461689          -12.56320
     20       2.00000          -0.444480          -12.09492
     21       2.00000          -0.412267          -11.21837
     22       2.00000          -0.360816           -9.81830
     23       2.00000          -0.352974           -9.60491
     24       2.00000          -0.314451           -8.55666
     25       0.00000          -0.108563           -2.95416
     26       0.00000          -0.040172           -1.09314
     27       0.00000           0.010563            0.28744
     28       0.00000           0.014552            0.39599
     29       0.00000           0.033131            0.90153
     30       0.00000           0.046270            1.25908
     31       0.00000           0.052024            1.41565
     32       0.00000           0.061112            1.66294
     33       0.00000           0.072740            1.97937
     34       0.00000           0.113656            3.09273
     35       0.00000           0.132579            3.60767
     36       0.00000           0.162688            4.42697
     37       0.00000           0.193859            5.27517
     38       0.00000           0.228130            6.20774
     39       0.00000           0.232059            6.31464
     40       0.00000           0.257646            7.01091
     41       0.00000           0.286434            7.79428
     42       0.00000           0.300472            8.17626
     43       0.00000           0.325056            8.84521
     44       0.00000           0.341441            9.29109
     45       0.00000           0.373300           10.15801
     46       0.00000           0.397726           10.82267
     47       0.00000           0.405348           11.03009
     48       0.00000           0.431525           11.74239
     49       0.00000           0.454365           12.36391
     50       0.00000           0.529887           14.41897
     51       0.00000           0.537023           14.61313
     52       0.00000           0.572191           15.57011
     53       0.00000           0.601333           16.36312

  Highest occupied state (VBM) at     -8.55666005 eV
  | Occupation number:      2.00000000

  Lowest unoccupied state (CBM) at    -2.95416119 eV
  | Occupation number:      0.00000000

  Overall HOMO-LUMO gap:      5.60249886 eV.

  Total energy components:
  | Sum of eigenvalues            :        -185.50309055 Ha       -5047.79592285 eV
  | XC energy correction          :         -42.12539856 Ha       -1146.29041753 eV
  | XC potential correction       :          54.15879993 Ha        1473.73592897 eV
  | Free-atom electrostatic energy:        -146.83134483 Ha       -3995.48418089 eV
  | Hartree energy correction     :          -3.29578777 Ha         -89.68294815 eV
  | vdW energy correction         :           0.00000000 Ha           0.00000000 eV
  | Entropy correction            :           0.00000000 Ha           0.00000000 eV
  | ---------------------------
  | Total energy                  :        -323.59682178 Ha       -8805.51754046 eV
  | Total energy, T -> 0          :        -323.59682178 Ha       -8805.51754046 eV  <-- do not rely on this value for anything but (periodic) metals
  | Electronic free energy        :        -323.59682178 Ha       -8805.51754046 eV

  Derived energy quantities:
  | Kinetic energy                :         322.27876060 Ha        8769.65127092 eV
  | Electrostatic energy          :        -603.75018382 Ha      -16428.87839384 eV
  | Energy correction for multipole
  | error in Hartree potential    :           0.01162236 Ha           0.31626042 eV
  | Sum of eigenvalues per atom                           :        -388.29199407 eV
  | Total energy (T->0) per atom                          :        -677.34750311 eV  <-- do not rely on this value for anything but (periodic) metals
  | Electronic free energy per atom                       :        -677.34750311 eV

  Self-consistency convergence accuracy:
  | Change of charge density      :  0.5760E+00
  | Change of sum of eigenvalues  :  0.9178E+02 eV
  | Change of total energy        :  0.4759E+01 eV

  End self-consistency iteration #     1       :  max(cpu_time)    wall_clock(cpu1)
  | Time for this iteration                    :        1.192 s           1.193 s
  | Charge density update                      :        0.394 s           0.394 s
  | Density mixing                             :        0.006 s           0.006 s
  | Hartree multipole update                   :        0.009 s           0.008 s
  | Hartree multipole summation                :        0.284 s           0.284 s
  | Integration                                :        0.497 s           0.498 s
  | Solution of K.-S. eqns.                    :        0.002 s           0.002 s
  | Total energy evaluation                    :        0.000 s           0.001 s

  Partial memory accounting:
  | Current value for overall tracked memory usage on task 0  :           0.165 MB
  | Peak value for overall tracked memory usage on task 0     :           0.695 MB after allocating gradient_basis_wave
  | Largest tracked array allocation on task 0 so far         :           0.397 MB  when allocating gradient_basis_wave
  Note:  These values currently only include a subset of arrays which are explicitly tracked.
  The "true" memory usage will be greater.
------------------------------------------------------------

------------------------------------------------------------
          Begin self-consistency iteration #    2

  Date     :  20200710, Time     :  145243.815
------------------------------------------------------------
  Evaluating new KS density.
  Integration grid: deviation in total charge (<rho> - N_e) =   7.105427E-15
  Pulay mixing of updated and previous charge densities.

  Evaluating partitioned Hartree potential by multipole expansion.
  | Analytical far-field extrapolation by fixed multipoles:
  | Hartree multipole sum: apparent total charge =  -0.373567E-03
  Summing up the Hartree potential.
  Time summed over all CPUs for potential: real work        0.283 s, elapsed        0.283 s
  | RMS charge density error from multipole expansion :   0.140778E-01

  Integrating Hamiltonian matrix: batch-based integration.
  Time summed over all CPUs for integration: real work        0.494 s, elapsed        0.494 s

  Updating Kohn-Sham eigenvalues and eigenvectors using ELSI and the ELPA eigensolver.
  Finished Cholesky decomposition
  | Time :     0.000 s
  Finished transformation to standard eigenproblem
  | Time :     0.000 s
  Starting LAPACK eigensolver
  Finished solving standard eigenproblem
  | Time :     0.001 s
  Finished back-transformation of eigenvectors
  | Time :     0.000 s

  Obtaining occupation numbers and chemical potential using ELSI.
  | Chemical potential (Fermi level):    -3.02375827eV
  Highest occupied state (VBM) at     -6.60319222 eV
  | Occupation number:      2.00000000

  Lowest unoccupied state (CBM) at    -1.53826177 eV
  | Occupation number:      0.00000000

  Overall HOMO-LUMO gap:      5.06493045 eV.

  Checking to see if s.c.f. parameters should be adjusted.

  Total energy components:
  | Sum of eigenvalues            :        -181.91528215 Ha       -4950.16668895 eV
  | XC energy correction          :         -42.48430399 Ha       -1156.05673119 eV
  | XC potential correction       :          54.62404115 Ha        1486.39578667 eV
  | Free-atom electrostatic energy:        -146.83134483 Ha       -3995.48418089 eV
  | Hartree energy correction     :          -6.91343984 Ha        -188.12426975 eV
  | vdW energy correction         :           0.00000000 Ha           0.00000000 eV
  | Entropy correction            :           0.00000000 Ha           0.00000000 eV
  | ---------------------------
  | Total energy                  :        -323.52032967 Ha       -8803.43608412 eV
  | Total energy, T -> 0          :        -323.52032967 Ha       -8803.43608412 eV  <-- do not rely on this value for anything but (periodic) metals
  | Electronic free energy        :        -323.52032967 Ha       -8803.43608412 eV

  Derived energy quantities:
  | Kinetic energy                :         323.60054384 Ha        8805.61882290 eV
  | Electrostatic energy          :        -604.63656951 Ha      -16452.99817583 eV
  | Energy correction for multipole
  | error in Hartree potential    :           0.02555743 Ha           0.69545319 eV
  | Sum of eigenvalues per atom                           :        -380.78205300 eV
  | Total energy (T->0) per atom                          :        -677.18739109 eV  <-- do not rely on this value for anything but (periodic) metals
  | Electronic free energy per atom                       :        -677.18739109 eV

  Self-consistency convergence accuracy:
  | Change of charge density      :  0.3596E+00
  | Change of sum of eigenvalues  :  0.9763E+02 eV
  | Change of total energy        :  0.2081E+01 eV

  End self-consistency iteration #     2       :  max(cpu_time)    wall_clock(cpu1)
  | Time for this iteration                    :        1.183 s           1.187 s
  | Charge density update                      :        0.388 s           0.391 s
  | Density mixing                             :        0.007 s           0.007 s
  | Hartree multipole update                   :        0.009 s           0.009 s
  | Hartree multipole summation                :        0.283 s           0.283 s
  | Integration                                :        0.494 s           0.494 s
  | Solution of K.-S. eqns.                    :        0.002 s           0.002 s
  | Total energy evaluation                    :        0.000 s           0.000 s

  Partial memory accounting:
  | Current value for overall tracked memory usage on task 0  :           0.166 MB
  | Peak value for overall tracked memory usage on task 0     :           0.695 MB after allocating gradient_basis_wave
  | Largest tracked array allocation on task 0 so far         :           0.397 MB  when allocating gradient_basis_wave
  Note:  These values currently only include a subset of arrays which are explicitly tracked.
  The "true" memory usage will be greater.
------------------------------------------------------------

------------------------------------------------------------
          Begin self-consistency iteration #    3

  Date     :  20200710, Time     :  145245.003
------------------------------------------------------------
  Evaluating new KS density.
  Integration grid: deviation in total charge (<rho> - N_e) =  -7.105427E-15
  Pulay mixing of updated and previous charge densities.

  Evaluating partitioned Hartree potential by multipole expansion.
  | Analytical far-field extrapolation by fixed multipoles:
  | Hartree multipole sum: apparent total charge =  -0.471676E-03
  Summing up the Hartree potential.
  Time summed over all CPUs for potential: real work        0.283 s, elapsed        0.283 s
  | RMS charge density error from multipole expansion :   0.223323E-01

  Integrating Hamiltonian matrix: batch-based integration.
  Time summed over all CPUs for integration: real work        0.494 s, elapsed        0.494 s

  Updating Kohn-Sham eigenvalues and eigenvectors using ELSI and the ELPA eigensolver.
  Finished Cholesky decomposition
  | Time :     0.000 s
  Finished transformation to standard eigenproblem
  | Time :     0.000 s
  Starting LAPACK eigensolver
  Finished solving standard eigenproblem
  | Time :     0.001 s
  Finished back-transformation of eigenvectors
  | Time :     0.000 s

  Obtaining occupation numbers and chemical potential using ELSI.
  | Chemical potential (Fermi level):    -2.36377705eV
  Highest occupied state (VBM) at     -5.93994735 eV
  | Occupation number:      2.00000000

  Lowest unoccupied state (CBM) at    -0.77600970 eV
  | Occupation number:      0.00000000

  Overall HOMO-LUMO gap:      5.16393765 eV.

  Total energy components:
  | Sum of eigenvalues            :        -180.55159049 Ha       -4913.05875087 eV
  | XC energy correction          :         -42.63856083 Ha       -1160.25427330 eV
  | XC potential correction       :          54.82083733 Ha        1491.75088330 eV
  | Free-atom electrostatic energy:        -146.83134483 Ha       -3995.48418089 eV
  | Hartree energy correction     :          -8.30743051 Ha        -226.05668569 eV
  | vdW energy correction         :           0.00000000 Ha           0.00000000 eV
  | Entropy correction            :           0.00000000 Ha           0.00000000 eV
  | ---------------------------
  | Total energy                  :        -323.50808932 Ha       -8803.10300746 eV
  | Total energy, T -> 0          :        -323.50808932 Ha       -8803.10300746 eV  <-- do not rely on this value for anything but (periodic) metals
  | Electronic free energy        :        -323.50808932 Ha       -8803.10300746 eV

  Derived energy quantities:
  | Kinetic energy                :         323.19976650 Ha        8794.71311667 eV
  | Electrostatic energy          :        -604.06929500 Ha      -16437.56185082 eV
  | Energy correction for multipole
  | error in Hartree potential    :           0.03591940 Ha           0.97741655 eV
  | Sum of eigenvalues per atom                           :        -377.92759622 eV
  | Total energy (T->0) per atom                          :        -677.16176980 eV  <-- do not rely on this value for anything but (periodic) metals
  | Electronic free energy per atom                       :        -677.16176980 eV

  Self-consistency convergence accuracy:
  | Change of charge density      :  0.1997E+00
  | Change of sum of eigenvalues  :  0.3711E+02 eV
  | Change of total energy        :  0.3331E+00 eV

  End self-consistency iteration #     3       :  max(cpu_time)    wall_clock(cpu1)
  | Time for this iteration                    :        1.182 s           1.184 s
  | Charge density update                      :        0.386 s           0.386 s
  | Density mixing                             :        0.008 s           0.009 s
  | Hartree multipole update                   :        0.009 s           0.009 s
  | Hartree multipole summation                :        0.283 s           0.283 s
  | Integration                                :        0.494 s           0.494 s
  | Solution of K.-S. eqns.                    :        0.002 s           0.002 s
  | Total energy evaluation                    :        0.000 s           0.000 s

  Partial memory accounting:
  | Current value for overall tracked memory usage on task 0  :           0.166 MB
  | Peak value for overall tracked memory usage on task 0     :           0.695 MB after allocating gradient_basis_wave
  | Largest tracked array allocation on task 0 so far         :           0.397 MB  when allocating gradient_basis_wave
  Note:  These values currently only include a subset of arrays which are explicitly tracked.
  The "true" memory usage will be greater.
------------------------------------------------------------

------------------------------------------------------------
          Begin self-consistency iteration #    4

  Date     :  20200710, Time     :  145246.190
------------------------------------------------------------
  Evaluating new KS density.
  Integration grid: deviation in total charge (<rho> - N_e) =  -4.263256E-14
  Pulay mixing of updated and previous charge densities.

  Evaluating partitioned Hartree potential by multipole expansion.
  | Analytical far-field extrapolation by fixed multipoles:
  | Hartree multipole sum: apparent total charge =  -0.503722E-03
  Summing up the Hartree potential.
  Time summed over all CPUs for potential: real work        0.282 s, elapsed        0.282 s
  | RMS charge density error from multipole expansion :   0.257892E-01

  Integrating Hamiltonian matrix: batch-based integration.
  Time summed over all CPUs for integration: real work        0.494 s, elapsed        0.494 s

  Updating Kohn-Sham eigenvalues and eigenvectors using ELSI and the ELPA eigensolver.
  Finished Cholesky decomposition
  | Time :     0.000 s
  Finished transformation to standard eigenproblem
  | Time :     0.000 s
  Starting LAPACK eigensolver
  Finished solving standard eigenproblem
  | Time :     0.002 s
  Finished back-transformation of eigenvectors
  | Time :     0.000 s

  Obtaining occupation numbers and chemical potential using ELSI.
  | Chemical potential (Fermi level):    -2.25373809eV
  Highest occupied state (VBM) at     -5.66130757 eV
  | Occupation number:      2.00000000

  Lowest unoccupied state (CBM) at    -0.70436521 eV
  | Occupation number:      0.00000000

  Overall HOMO-LUMO gap:      4.95694236 eV.

  Total energy components:
  | Sum of eigenvalues            :        -180.46384754 Ha       -4910.67114368 eV
  | XC energy correction          :         -42.67130112 Ha       -1161.14518186 eV
  | XC potential correction       :          54.86178180 Ha        1492.86503889 eV
  | Free-atom electrostatic energy:        -146.83134483 Ha       -3995.48418089 eV
  | Hartree energy correction     :          -8.40242861 Ha        -228.64171565 eV
  | vdW energy correction         :           0.00000000 Ha           0.00000000 eV
  | Entropy correction            :           0.00000000 Ha           0.00000000 eV
  | ---------------------------
  | Total energy                  :        -323.50714030 Ha       -8803.07718320 eV
  | Total energy, T -> 0          :        -323.50714030 Ha       -8803.07718320 eV  <-- do not rely on this value for anything but (periodic) metals
  | Electronic free energy        :        -323.50714030 Ha       -8803.07718320 eV

  Derived energy quantities:
  | Kinetic energy                :         322.78645683 Ha        8783.46638828 eV
  | Electrostatic energy          :        -603.62229601 Ha      -16425.39838962 eV
  | Energy correction for multipole
  | error in Hartree potential    :           0.03962322 Ha           1.07820262 eV
  | Sum of eigenvalues per atom                           :        -377.74393413 eV
  | Total energy (T->0) per atom                          :        -677.15978332 eV  <-- do not rely on this value for anything but (periodic) metals
  | Electronic free energy per atom                       :        -677.15978332 eV

  Self-consistency convergence accuracy:
  | Change of charge density      :  0.6398E-01
  | Change of sum of eigenvalues  :  0.2388E+01 eV
  | Change of total energy        :  0.2582E-01 eV

  End self-consistency iteration #     4       :  max(cpu_time)    wall_clock(cpu1)
  | Time for this iteration                    :        1.183 s           1.185 s
  | Charge density update                      :        0.386 s           0.387 s
  | Density mixing                             :        0.009 s           0.009 s
  | Hartree multipole update                   :        0.009 s           0.009 s
  | Hartree multipole summation                :        0.283 s           0.283 s
  | Integration                                :        0.494 s           0.494 s
  | Solution of K.-S. eqns.                    :        0.002 s           0.002 s
  | Total energy evaluation                    :        0.000 s           0.000 s

  Partial memory accounting:
  | Current value for overall tracked memory usage on task 0  :           0.166 MB
  | Peak value for overall tracked memory usage on task 0     :           0.696 MB after allocating gradient_basis_wave
  | Largest tracked array allocation on task 0 so far         :           0.397 MB  when allocating gradient_basis_wave
  Note:  These values currently only include a subset of arrays which are explicitly tracked.
  The "true" memory usage will be greater.
------------------------------------------------------------

------------------------------------------------------------
          Begin self-consistency iteration #    5

  Date     :  20200710, Time     :  145247.375
------------------------------------------------------------
  Evaluating new KS density.
  Integration grid: deviation in total charge (<rho> - N_e) =  -7.105427E-15
  Pulay mixing of updated and previous charge densities.

  Evaluating partitioned Hartree potential by multipole expansion.
  | Analytical far-field extrapolation by fixed multipoles:
  | Hartree multipole sum: apparent total charge =  -0.499090E-03
  Summing up the Hartree potential.
  Time summed over all CPUs for potential: real work        0.283 s, elapsed        0.283 s
  | RMS charge density error from multipole expansion :   0.255255E-01

  Integrating Hamiltonian matrix: batch-based integration.
  Time summed over all CPUs for integration: real work        0.494 s, elapsed        0.494 s

  Updating Kohn-Sham eigenvalues and eigenvectors using ELSI and the ELPA eigensolver.
  Finished Cholesky decomposition
  | Time :     0.000 s
  Finished transformation to standard eigenproblem
  | Time :     0.000 s
  Starting LAPACK eigensolver
  Finished solving standard eigenproblem
  | Time :     0.001 s
  Finished back-transformation of eigenvectors
  | Time :     0.000 s

  Obtaining occupation numbers and chemical potential using ELSI.
  | Chemical potential (Fermi level):    -2.29979392eV
  Highest occupied state (VBM) at     -5.78279737 eV
  | Occupation number:      2.00000000

  Lowest unoccupied state (CBM) at    -0.76783930 eV
  | Occupation number:      0.00000000

  Overall HOMO-LUMO gap:      5.01495807 eV.

  Total energy components:
  | Sum of eigenvalues            :        -180.60020149 Ha       -4914.38152350 eV
  | XC energy correction          :         -42.65344027 Ha       -1160.65916347 eV
  | XC potential correction       :          54.83864607 Ha        1492.23548366 eV
  | Free-atom electrostatic energy:        -146.83134483 Ha       -3995.48418089 eV
  | Hartree energy correction     :          -8.26050745 Ha        -224.77984431 eV
  | vdW energy correction         :           0.00000000 Ha           0.00000000 eV
  | Entropy correction            :           0.00000000 Ha           0.00000000 eV
  | ---------------------------
  | Total energy                  :        -323.50684797 Ha       -8803.06922851 eV
  | Total energy, T -> 0          :        -323.50684797 Ha       -8803.06922851 eV  <-- do not rely on this value for anything but (periodic) metals
  | Electronic free energy        :        -323.50684797 Ha       -8803.06922851 eV

  Derived energy quantities:
  | Kinetic energy                :         322.71728639 Ha        8781.58416472 eV
  | Electrostatic energy          :        -603.57069409 Ha      -16423.99422975 eV
  | Energy correction for multipole
  | error in Hartree potential    :           0.03905421 Ha           1.06271920 eV
  | Sum of eigenvalues per atom                           :        -378.02934796 eV
  | Total energy (T->0) per atom                          :        -677.15917142 eV  <-- do not rely on this value for anything but (periodic) metals
  | Electronic free energy per atom                       :        -677.15917142 eV

  Self-consistency convergence accuracy:
  | Change of charge density      :  0.2197E-01
  | Change of sum of eigenvalues  : -0.3710E+01 eV
  | Change of total energy        :  0.7955E-02 eV

  End self-consistency iteration #     5       :  max(cpu_time)    wall_clock(cpu1)
  | Time for this iteration                    :        1.185 s           1.187 s
  | Charge density update                      :        0.386 s           0.386 s
  | Density mixing                             :        0.011 s           0.011 s
  | Hartree multipole update                   :        0.009 s           0.009 s
  | Hartree multipole summation                :        0.283 s           0.283 s
  | Integration                                :        0.495 s           0.495 s
  | Solution of K.-S. eqns.                    :        0.002 s           0.002 s
  | Total energy evaluation                    :        0.000 s           0.001 s

  Partial memory accounting:
  | Current value for overall tracked memory usage on task 0  :           0.166 MB
  | Peak value for overall tracked memory usage on task 0     :           0.696 MB after allocating gradient_basis_wave
  | Largest tracked array allocation on task 0 so far         :           0.397 MB  when allocating gradient_basis_wave
  Note:  These values currently only include a subset of arrays which are explicitly tracked.
  The "true" memory usage will be greater.
------------------------------------------------------------

------------------------------------------------------------
          Begin self-consistency iteration #    6

  Date     :  20200710, Time     :  145248.562
------------------------------------------------------------
  Evaluating new KS density.
  Integration grid: deviation in total charge (<rho> - N_e) =   7.105427E-14
  Pulay mixing of updated and previous charge densities.

  Evaluating partitioned Hartree potential by multipole expansion.
  | Analytical far-field extrapolation by fixed multipoles:
  | Hartree multipole sum: apparent total charge =  -0.500815E-03
  Summing up the Hartree potential.
  Time summed over all CPUs for potential: real work        0.283 s, elapsed        0.283 s
  | RMS charge density error from multipole expansion :   0.258087E-01

  Integrating Hamiltonian matrix: batch-based integration.
  Time summed over all CPUs for integration: real work        0.495 s, elapsed        0.495 s

  Updating Kohn-Sham eigenvalues and eigenvectors using ELSI and the ELPA eigensolver.
  Finished Cholesky decomposition
  | Time :     0.000 s
  Finished transformation to standard eigenproblem
  | Time :     0.000 s
  Starting LAPACK eigensolver
  Finished solving standard eigenproblem
  | Time :     0.001 s
  Finished back-transformation of eigenvectors
  | Time :     0.000 s

  Obtaining occupation numbers and chemical potential using ELSI.
  | Chemical potential (Fermi level):    -2.31410800eV
  Highest occupied state (VBM) at     -5.81243177 eV
  | Occupation number:      2.00000000

  Lowest unoccupied state (CBM) at    -0.80529505 eV
  | Occupation number:      0.00000000

  Overall HOMO-LUMO gap:      5.00713672 eV.

  Total energy components:
  | Sum of eigenvalues            :        -180.65815140 Ha       -4915.95842089 eV
  | XC energy correction          :         -42.64554286 Ha       -1160.44426397 eV
  | XC potential correction       :          54.82839094 Ha        1491.95642745 eV
  | Free-atom electrostatic energy:        -146.83134483 Ha       -3995.48418089 eV
  | Hartree energy correction     :          -8.20012441 Ha        -223.13673840 eV
  | vdW energy correction         :           0.00000000 Ha           0.00000000 eV
  | Entropy correction            :           0.00000000 Ha           0.00000000 eV
  | ---------------------------
  | Total energy                  :        -323.50677257 Ha       -8803.06717671 eV
  | Total energy, T -> 0          :        -323.50677257 Ha       -8803.06717671 eV  <-- do not rely on this value for anything but (periodic) metals
  | Electronic free energy        :        -323.50677257 Ha       -8803.06717671 eV

  Derived energy quantities:
  | Kinetic energy                :         322.61974087 Ha        8778.92981614 eV
  | Electrostatic energy          :        -603.48097058 Ha      -16421.55272887 eV
  | Energy correction for multipole
  | error in Hartree potential    :           0.03906962 Ha           1.06313855 eV
  | Sum of eigenvalues per atom                           :        -378.15064776 eV
  | Total energy (T->0) per atom                          :        -677.15901359 eV  <-- do not rely on this value for anything but (periodic) metals
  | Electronic free energy per atom                       :        -677.15901359 eV

  Self-consistency convergence accuracy:
  | Change of charge density      :  0.1085E-01
  | Change of sum of eigenvalues  : -0.1577E+01 eV
  | Change of total energy        :  0.2052E-02 eV

  End self-consistency iteration #     6       :  max(cpu_time)    wall_clock(cpu1)
  | Time for this iteration                    :        1.188 s           1.189 s
  | Charge density update                      :        0.386 s           0.386 s
  | Density mixing                             :        0.012 s           0.012 s
  | Hartree multipole update                   :        0.009 s           0.008 s
  | Hartree multipole summation                :        0.284 s           0.284 s
  | Integration                                :        0.495 s           0.495 s
  | Solution of K.-S. eqns.                    :        0.002 s           0.002 s
  | Total energy evaluation                    :        0.000 s           0.001 s

  Partial memory accounting:
  | Current value for overall tracked memory usage on task 0  :           0.166 MB
  | Peak value for overall tracked memory usage on task 0     :           0.696 MB after allocating gradient_basis_wave
  | Largest tracked array allocation on task 0 so far         :           0.397 MB  when allocating gradient_basis_wave
  Note:  These values currently only include a subset of arrays which are explicitly tracked.
  The "true" memory usage will be greater.
------------------------------------------------------------

------------------------------------------------------------
          Begin self-consistency iteration #    7

  Date     :  20200710, Time     :  145249.751
------------------------------------------------------------
  Evaluating new KS density.
  Integration grid: deviation in total charge (<rho> - N_e) =  -2.842171E-14
  Pulay mixing of updated and previous charge densities.

  Evaluating partitioned Hartree potential by multipole expansion.
  | Analytical far-field extrapolation by fixed multipoles:
  | Hartree multipole sum: apparent total charge =  -0.502563E-03
  Summing up the Hartree potential.
  Time summed over all CPUs for potential: real work        0.283 s, elapsed        0.283 s
  | RMS charge density error from multipole expansion :   0.259684E-01

  Integrating Hamiltonian matrix: batch-based integration.
  Time summed over all CPUs for integration: real work        0.494 s, elapsed        0.494 s

  Updating Kohn-Sham eigenvalues and eigenvectors using ELSI and the ELPA eigensolver.
  Finished Cholesky decomposition
  | Time :     0.000 s
  Finished transformation to standard eigenproblem
  | Time :     0.000 s
  Starting LAPACK eigensolver
  Finished solving standard eigenproblem
  | Time :     0.001 s
  Finished back-transformation of eigenvectors
  | Time :     0.000 s

[...]
  |   Hirshfeld dipole moment :      0.06459130
  |   Hirshfeld second moments:     -0.00011539      -0.02485460      -0.01406607
  |                                 -0.02485460      -0.03110374       0.00433724
  |                                 -0.01406607       0.00433724      -0.02642906
  ----------------------------------------------------------------------
  | Atom    12: O
  |   Hirshfeld charge        :     -0.15503732
  |   Free atom volume        :     23.61338643
  |   Hirshfeld volume        :     21.29012315
  |   Hirshfeld dipole vector :      0.02150985       0.03539777      -0.01143700
  |   Hirshfeld dipole moment :      0.04297070
  |   Hirshfeld second moments:      0.04562977      -0.00961966      -0.00032089
  |                                 -0.00961966       0.02403939       0.01993873
  |                                 -0.00032089       0.01993873       0.07575056
  ----------------------------------------------------------------------
  | Atom    13: H
  |   Hirshfeld charge        :      0.12245219
  |   Free atom volume        :      9.95071624
  |   Hirshfeld volume        :      7.18598545
  |   Hirshfeld dipole vector :      0.01667426      -0.01828642      -0.06981494
  |   Hirshfeld dipole moment :      0.07407124
  |   Hirshfeld second moments:      0.10334875      -0.00861216       0.00541509
  |                                 -0.00861216       0.06800254       0.03394637
  |                                  0.00541509       0.03394637       0.07195252
  ----------------------------------------------------------------------


  Total energy components:
  | Sum of eigenvalues            :        -180.64505224 Ha       -4915.60197453 eV
  | XC energy correction          :         -42.64392554 Ha       -1160.40025447 eV
  | XC potential correction       :          54.82637367 Ha        1491.90153480 eV
  | Free-atom electrostatic energy:        -146.83134483 Ha       -3995.48418089 eV
  | Hartree energy correction     :          -8.21280529 Ha        -223.48180258 eV
  | vdW energy correction         :          -0.00346117 Ha          -0.09418329 eV
  | Entropy correction            :           0.00000000 Ha           0.00000000 eV
  | ---------------------------
  | Total energy                  :        -323.51021540 Ha       -8803.16086096 eV
  | Total energy, T -> 0          :        -323.51021540 Ha       -8803.16086096 eV  <-- do not rely on this value for anything but (periodic) metals
  | Electronic free energy        :        -323.51021540 Ha       -8803.16086096 eV

  Derived energy quantities:
  | Kinetic energy                :         322.58304743 Ha        8777.93133692 eV
  | Electrostatic energy          :        -603.44587612 Ha      -16420.59776011 eV
  | Energy correction for multipole
  | error in Hartree potential    :           0.03911621 Ha           1.06440618 eV
  | Sum of eigenvalues per atom                           :        -378.12322881 eV
  | Total energy (T->0) per atom                          :        -677.16622007 eV  <-- do not rely on this value for anything but (periodic) metals
  | Electronic free energy per atom                       :        -677.16622007 eV

  atomic forces [eV/Ang]:
  -----------------------
  atom #    1
   Hellmann-Feynman              :  0.825643E+00  0.147995E+00  0.165224E+01
   Ionic forces                  :  0.000000E+00  0.000000E+00  0.000000E+00
   Multipole                     :  0.469016E-01  0.404555E+00 -0.288983E+00
   Pulay + GGA                   : -0.102863E+01  0.150575E+00 -0.153088E+01
   Van der Waals                 :  0.200623E-02  0.833741E-03 -0.104992E-02
   ----------------------------------------------------------------
   Total forces(   1)            : -0.154080E+00  0.703958E+00 -0.168668E+00
  atom #    2
   Hellmann-Feynman              :  0.239616E+00  0.237272E-02 -0.666807E-01
   Ionic forces                  :  0.000000E+00  0.000000E+00  0.000000E+00
   Multipole                     :  0.179943E+00  0.343861E-01  0.173994E-01
   Pulay + GGA                   : -0.131407E+00  0.422377E-02  0.619223E-01
   Van der Waals                 :  0.513046E-02 -0.326555E-02 -0.638168E-02
   ----------------------------------------------------------------
   Total forces(   2)            :  0.293283E+00  0.377171E-01  0.625930E-02
  atom #    3
   Hellmann-Feynman              : -0.344713E+01 -0.102167E+02 -0.705052E+00
   Ionic forces                  :  0.000000E+00  0.000000E+00  0.000000E+00
   Multipole                     : -0.155517E+00  0.812497E-01 -0.837650E+00
   Pulay + GGA                   :  0.392354E+01  0.946219E+01  0.211203E+01
   Van der Waals                 :  0.355781E-02 -0.514197E-02 -0.903407E-02
   ----------------------------------------------------------------
   Total forces(   3)            :  0.324452E+00 -0.678415E+00  0.560298E+00
  atom #    4
   Hellmann-Feynman              :  0.530161E-02  0.115681E+00 -0.205857E+00
   Ionic forces                  :  0.000000E+00  0.000000E+00  0.000000E+00
   Multipole                     : -0.873092E-01  0.544008E-01 -0.833235E-01
   Pulay + GGA                   :  0.120417E+00 -0.213407E+00  0.292915E-01
   Van der Waals                 : -0.127434E-02 -0.371818E-02 -0.708783E-02
   ----------------------------------------------------------------
   Total forces(   4)            :  0.371354E-01 -0.470425E-01 -0.266977E+00
  atom #    5
   Hellmann-Feynman              : -0.201504E-01  0.273379E+00 -0.227500E+00
   Ionic forces                  :  0.000000E+00  0.000000E+00  0.000000E+00
   Multipole                     :  0.404529E-01  0.406774E-02 -0.123252E+00
   Pulay + GGA                   : -0.170080E+00 -0.108936E+00  0.125783E+00
   Van der Waals                 : -0.166278E-02  0.203041E-02  0.384302E-02
   ----------------------------------------------------------------
   Total forces(   5)            : -0.151440E+00  0.170541E+00 -0.221125E+00
  atom #    6
   Hellmann-Feynman              :  0.189987E+00 -0.437192E+00  0.297822E+00
   Ionic forces                  :  0.000000E+00  0.000000E+00  0.000000E+00
   Multipole                     : -0.713547E-01  0.592071E+00  0.250175E+00
   Pulay + GGA                   :  0.176356E+00 -0.580834E+00 -0.340542E+00
   Van der Waals                 : -0.279353E-02  0.458498E-02 -0.185222E-02
   ----------------------------------------------------------------
   Total forces(   6)            :  0.292195E+00 -0.421370E+00  0.205603E+00
  atom #    7
   Hellmann-Feynman              : -0.249463E+00 -0.751301E-01 -0.433228E-01
   Ionic forces                  :  0.000000E+00  0.000000E+00  0.000000E+00
   Multipole                     : -0.121230E+00  0.495150E-01  0.280150E-01
   Pulay + GGA                   :  0.112241E+00  0.569386E-02  0.496127E-01
   Van der Waals                 : -0.235410E-02  0.297980E-02  0.801345E-02
   ----------------------------------------------------------------
   Total forces(   7)            : -0.260806E+00 -0.169414E-01  0.423184E-01
  atom #    8
   Hellmann-Feynman              :  0.108295E-01 -0.383115E-02  0.186443E+00
   Ionic forces                  :  0.000000E+00  0.000000E+00  0.000000E+00
   Multipole                     :  0.173113E-01  0.630584E-01  0.120908E+00
   Pulay + GGA                   : -0.528311E-01 -0.555143E-01 -0.116911E+00
   Van der Waals                 : -0.296948E-02  0.114179E-01  0.613958E-03
   ----------------------------------------------------------------
   Total forces(   8)            : -0.276598E-01  0.151309E-01  0.191053E+00
  atom #    9
   Hellmann-Feynman              :  0.125687E+00  0.618196E-01 -0.172197E+00
   Ionic forces                  :  0.000000E+00  0.000000E+00  0.000000E+00
   Multipole                     :  0.157561E-01  0.125632E+00 -0.109669E-01
   Pulay + GGA                   : -0.309561E-01 -0.720827E-01  0.600317E-01
   Van der Waals                 :  0.686718E-03  0.612080E-02  0.679632E-02
   ----------------------------------------------------------------
   Total forces(   9)            :  0.111174E+00  0.121490E+00 -0.116336E+00
  atom #   10
   Hellmann-Feynman              :  0.211718E+01  0.316429E+01  0.148303E+01
   Ionic forces                  :  0.000000E+00  0.000000E+00  0.000000E+00
   Multipole                     :  0.226967E-01 -0.818583E-01  0.245813E+00
   Pulay + GGA                   : -0.149406E+01 -0.240981E+01 -0.899212E-02
   Van der Waals                 :  0.341858E-02 -0.115491E-01 -0.281000E-02
   ----------------------------------------------------------------
   Total forces(  10)            :  0.649229E+00  0.661071E+00  0.171704E+01
  atom #   11
   Hellmann-Feynman              :  0.418447E+01 -0.233675E+01  0.143304E+02
   Ionic forces                  :  0.000000E+00  0.000000E+00  0.000000E+00
   Multipole                     :  0.257322E+00 -0.662930E+00  0.849712E+00
   Pulay + GGA                   : -0.376718E+01  0.383162E+01 -0.139024E+02
   Van der Waals                 : -0.166836E-02 -0.117642E-01  0.829860E-02
   ----------------------------------------------------------------
   Total forces(  11)            :  0.672945E+00  0.820184E+00  0.128604E+01
  atom #   12
   Hellmann-Feynman              : -0.831228E+01 -0.113452E+02  0.197973E+01
   Ionic forces                  :  0.000000E+00  0.000000E+00  0.000000E+00
   Multipole                     : -0.790641E+00 -0.156907E+01 -0.383534E-01
   Pulay + GGA                   :  0.821631E+01  0.114308E+02 -0.356356E+01
   Van der Waals                 :  0.131781E-02  0.105226E-01  0.101578E-02
   ----------------------------------------------------------------
   Total forces(  12)            : -0.885292E+00 -0.147294E+01 -0.162117E+01
  atom #   13
   Hellmann-Feynman              : -0.824006E+00  0.156282E+00 -0.191258E+01
   Ionic forces                  :  0.000000E+00  0.000000E+00  0.000000E+00
   Multipole                     :  0.337745E-01  0.460304E-01 -0.870758E-01
   Pulay + GGA                   : -0.107128E+00 -0.909290E-01  0.377471E+00
   Van der Waals                 : -0.339499E-02 -0.305112E-02 -0.365422E-03
   ----------------------------------------------------------------
   Total forces(  13)            : -0.900754E+00  0.108333E+00 -0.162255E+01

  Timings for VdW correction (Tkatchenko-Scheffler 2009 or later):
  | CPU time:        0.090 s, Wall clock time:        0.091 s.
  Removing unitary transformations (pure translations, rotations) from forces on atoms.
  Atomic forces before filtering:
  | Net force on center of mass :   0.380623E-03  0.171712E-02 -0.821313E-02 eV/A
  | Net torque on center of mass:   0.742033E-02  0.296825E-03 -0.246990E-02 eV
  Atomic forces after filtering:
  | Net force on center of mass :   0.000000E+00 -0.401414E-15 -0.356812E-15 eV/A
  | Net torque on center of mass:  -0.143973E-14  0.472042E-15 -0.113290E-14 eV

  Energy and forces in a compact form:
  | Total energy uncorrected      :         -0.880316086095861E+04 eV
  | Total energy corrected        :         -0.880316086095861E+04 eV  <-- do not rely on this value for anything but (periodic) metals
  | Electronic free energy        :         -0.880316086095861E+04 eV
  Total atomic forces (unitary forces cleaned) [eV/Ang]:
  |   1         -0.154107760470600E+00          0.703854072748694E+00         -0.168028067183950E+00
  |   2          0.293254450414592E+00          0.377063302129517E-01          0.691710623398031E-02
  |   3          0.324446806410513E+00         -0.678824688608689E+00          0.560929786798205E+00
  |   4          0.370712060063296E-01         -0.475323105774437E-01         -0.266491739806540E+00
  |   5         -0.151451857621271E+00          0.170083838946385E+00         -0.220518264339524E+00
  |   6          0.292046980409902E+00         -0.421379638956096E+00          0.205997734884530E+00
  |   7         -0.260956514626700E+00         -0.170414082856223E-01          0.426900399018195E-01
  |   8         -0.278259743072557E-01          0.153451101728105E-01          0.191451984940146E+00
  |   9          0.110957614612757E+00          0.121416304504984E+00         -0.116103315269009E+00
  |  10          0.649298419884583E+00          0.661072831887291E+00          0.171791059622078E+01
  |  11          0.673018724786709E+00          0.820424369922282E+00          0.128697280250346E+01
  |  12         -0.885138796598639E+00         -0.147312352717348E+01         -0.162014852885809E+01
  |  13         -0.900613298900920E+00          0.107998715205929E+00         -0.162158013602581E+01

  ------------------------------------ 
  Start decomposition of the XC Energy 
  ------------------------------------ 
  X and C from original XC functional choice 
  Hartree-Fock Energy :          0.000000000 Ha              0.000000000 eV
  X Energy            :        -41.041165861 Ha          -1116.786944569 eV
  C Energy            :         -1.602759680 Ha            -43.613309905 eV
  Total XC Energy     :        -42.643925541 Ha          -1160.400254474 eV
  ------------------------------------ 
  LDA X and C from self-consistent density 
  X Energy LDA        :        -37.263060122 Ha          -1013.979456614 eV
  C Energy LDA        :         -3.139231668 Ha            -85.422839964 eV
  ------------------------------------ 
  End decomposition of the XC Energy 
  ------------------------------------ 

------------------------------------------------------------

------------------------------------------------------------------------------
  Final output of selected total energy values:

  The following output summarizes some interesting total energy values
  at the end of a run (AFTER all relaxation, molecular dynamics, etc.).

  | Total energy of the DFT / Hartree-Fock s.c.f. calculation      :          -8803.160860959 eV
  | Final zero-broadening corrected energy (caution - metals only) :          -8803.160860959 eV
  | For reference only, the value of 1 Hartree used in FHI-aims is :             27.211384500 eV

  Before relying on these values, please be sure to understand exactly which
  total energy value is referred to by a given number. Different objects may
  all carry the same name 'total energy'. Definitions:

  Total energy of the DFT / Hartree-Fock s.c.f. calculation:
  | Note that this energy does not include ANY quantities calculated after the
  | s.c.f. cycle, in particular not ANY RPA, MP2, etc. many-body perturbation terms.

  Final zero-broadening corrected energy:
  | For metallic systems only, a broadening of the occupation numbers at the Fermi
  | level can be extrapolated back to zero broadening by an electron-gas inspired
  | formula. For all systems that are not real metals, this value can be
  | meaningless and should be avoided.

------------------------------------------------------------------------------
  Methods described in the following list of references were used in this FHI-aims run.
  If you publish the results, please make sure to cite these reference if they apply.
  FHI-aims is an academic code, and for our developers (often, Ph.D. students
  and postdocs), scientific credit in the community is essential.
  Thank you for helping us!

  For any use of FHI-aims, please cite:

    Volker Blum, Ralf Gehrke, Felix Hanke, Paula Havu, Ville Havu,
    Xinguo Ren, Karsten Reuter, and Matthias Scheffler
    'Ab initio molecular simulations with numeric atom-centered orbitals'
    Computer Physics Communications 180, 2175-2196 (2009)
    http://dx.doi.org/10.1016/j.cpc.2009.06.022


  The scalable eigensolver library ELPA was used in your run.
  ELPA is essential especially for large systems on hundreds or thousands of CPUs.
  For ELPA, please cite:

    Andreas Marek, Volker Blum, Rainer Johanni, Ville Havu, Bruno Lang,
    Thomas Auckenthaler, Alexander Heinecke, Hans-Joachim Bungartz, and Hermann Lederer,
    'The ELPA Library - Scalable Parallel Eigenvalue Solutions
    for Electronic Structure Theory and Computational Science'
    The Journal of Physics: Condensed Matter 26, 213201 (2014).
    http://dx.doi.org/10.1088/0953-8984/26/21/213201


  The ELSI infrastructure was used in your run to solve the Kohn-Sham electronic structure.
  Please check out http://elsi-interchange.org to learn more.
  If scalability is important for your project, please acknowledge ELSI by citing:

    V. W-z. Yu, F. Corsetti, A. Garcia, W. P. Huhn, M. Jacquelin, W. Jia,
    B. Lange, L. Lin, J. Lu, W. Mi, A. Seifitokaldani, A. Vazquez-Mayagoitia,
    C. Yang, H. Yang, and V. Blum
    'ELSI: A unified software interface for Kohn-Sham electronic structure solvers'
    Computer Physics Communications 222, 267-285 (2018).
    http://dx.doi.org/10.1016/j.cpc.2017.09.007


  For the real-space grid partitioning and parallelization used in this calculation, please cite:

    Ville Havu, Volker Blum, Paula Havu, and Matthias Scheffler,
    'Efficient O(N) integration for all-electron electronic structure calculation'
    'using numerically tabulated basis functions'
    Journal of Computational Physics 228, 8367-8379 (2009).
    http://dx.doi.org/10.1016/j.jcp.2009.08.008

  Of course, there are many other important community references, e.g., those cited in the
  above references. Our list is limited to references that describe implementations in the
  FHI-aims code. The reason is purely practical (length of this list) - please credit others as well.

------------------------------------------------------------
          Leaving FHI-aims.
          Date     :  20200710, Time     :  145304.029

          Computational steps:
          | Number of self-consistency cycles          :           16
          | Number of SCF (re)initializations          :            1

          Detailed time accounting                     :  max(cpu_time)    wall_clock(cpu1)
          | Total time                                 :       22.652 s          22.720 s
          | Preparation time                           :        0.146 s           0.148 s
          | Boundary condition initalization           :        0.000 s           0.000 s
          | Grid partitioning                          :        0.111 s           0.111 s
          | Preloading free-atom quantities on grid    :        0.002 s           0.002 s
          | Free-atom superposition energy             :        0.084 s           0.084 s
          | Total time for integrations                :        8.621 s           8.626 s
          | Total time for solution of K.-S. equations :        0.036 s           0.036 s
          | Total time for density & force components  :        7.128 s           7.154 s
          | Total time for mixing                      :        0.213 s           0.215 s
          | Total time for Hartree multipole update    :        0.141 s           0.142 s
          | Total time for Hartree multipole sum       :        5.770 s           5.773 s
          | Total time for total energy evaluation     :        0.003 s           0.006 s
          | Total time for vdW correction              :        0.090 s           0.091 s

          Partial memory accounting:
          | Residual value for overall tracked memory usage across tasks :           0.000 MB (should be 0.000 MB)
          | Peak values for overall tracked memory usage (after allocating hessian_basis_wave):
          |   Minimum:        1.622 MB (on task 1)
          |   Maximum:        1.622 MB (on task 1)
          |   Average:        1.622 MB
          | Largest tracked array allocation (hessian_basis_wave):
          |   Minimum:        0.794 MB (on task 1)
          |   Maximum:        0.794 MB (on task 1)
          |   Average:        0.794 MB
          Note:  These values currently only include a subset of arrays which are explicitly tracked.
          The "true" memory usage will be greater.

          Have a nice day.
------------------------------------------------------------
