  MPI-parallelism will be employed.
------------------------------------------------------------
          Invoking FHI-aims ...
          Version 171221_1
          Compiled on 2019/09/09 at 14:39:39 on host puhti-login2.bullx.

          When using FHI-aims, please cite the following reference:

          Volker Blum, Ralf Gehrke, Felix Hanke, Paula Havu,
          Ville Havu, Xinguo Ren, Karsten Reuter, and Matthias Scheffler,
          'Ab Initio Molecular Simulations with Numeric Atom-Centered Orbitals',
          Computer Physics Communications 180, 2175-2196 (2009)

          For any questions about FHI-aims, please visit the aimsclub website
          with its forums and wiki. Contributions to both the forums and the
          wiki are warmly encouraged - they are for you, and everyone is welcome there.

------------------------------------------------------------



  Date     :  20200702, Time     :  111911.991
  Time zero on CPU 1             :   0.372810000000000E-01  s.
  Internal wall clock time zero  :           362920751.991  s.

  FHI-aims created a unique identifier for this run for later identification
  aims_uuid : 408B6DB7-D5E5-4673-A0ED-2593CCF73945

  Using       20 parallel tasks.
  Task        0 on host r07c01.bullx reporting.
  Task        1 on host r07c01.bullx reporting.
  Task        2 on host r07c01.bullx reporting.
  Task        3 on host r07c01.bullx reporting.
  Task        4 on host r07c01.bullx reporting.
  Task        5 on host r07c01.bullx reporting.
  Task        6 on host r07c01.bullx reporting.
  Task        7 on host r07c01.bullx reporting.
  Task        8 on host r07c01.bullx reporting.
  Task        9 on host r07c01.bullx reporting.
  Task       10 on host r07c01.bullx reporting.
  Task       11 on host r07c01.bullx reporting.
  Task       12 on host r07c01.bullx reporting.
  Task       13 on host r07c01.bullx reporting.
  Task       14 on host r07c01.bullx reporting.
  Task       15 on host r07c01.bullx reporting.
  Task       16 on host r07c01.bullx reporting.
  Task       17 on host r07c01.bullx reporting.
  Task       18 on host r07c01.bullx reporting.
  Task       19 on host r07c01.bullx reporting.

  Performing system and environment tests:
  | Environment variable OMP_NUM_THREADS correctly set to 1.
  | Stacksize not measured: no C compiler
  | Checking for scalapack...
  | Testing pdtran()...
  | All pdtran() tests passed.

  Obtaining array dimensions for all initial allocations:
  
  -----------------------------------------------------------------------
  Parsing control.in (first pass over file, find array dimensions only).
  The contents of control.in will be repeated verbatim below
  unless switched off by setting 'verbatim_writeout .false.' .
  in the first line of control.in .
  -----------------------------------------------------------------------
  
  #########################################################################################
  #
  #  Volker Blum, FHI 2009 : Test run input file control.in for simple H2O
  #
  #########################################################################################
  #
  #  Physical model
  #
    xc                 pbe
    vdw_correction_hirshfeld
    spin               none
    relativistic       none
    charge             0.
  #
  #  SCF convergence
  #
    occupation_type    gaussian 0.01
    mixer              pulay
      n_max_pulay        10
      charge_mix_param   0.2
    sc_accuracy_rho    1E-5
    sc_accuracy_eev    1E-3
    sc_accuracy_etot   1E-6
    sc_accuracy_forces 1E-4
    sc_iter_limit      100
  #
  #  Relaxation
  #
  #  relax_geometry   bfgs 1.e-3
  #
  ################################################################################
  #
  #  FHI-aims code project
  #  VB, Fritz-Haber Institut, 2009
  #
  #  Suggested "light" defaults for H atom (to be pasted into control.in file)
  #  Be sure to double-check any results obtained with these settings for post-processing,
  #  e.g., with the "tight" defaults and larger basis sets.
  #
  ################################################################################
    species        H
  #     global species definitions
      nucleus             1
      mass                1.00794
  #
      l_hartree           4
  #
      cut_pot             3.5  1.5  1.0
      basis_dep_cutoff    1e-4
  #
      radial_base         24 5.0
      radial_multiplier   1
      angular_grids       specified
        division   0.2421   50
        division   0.3822  110
        division   0.4799  194
        division   0.5341  302
  #      division   0.5626  434
  #      division   0.5922  590
  #      division   0.6542  770
  #      division   0.6868 1202
  #      outer_grid  770
        outer_grid  302
  ################################################################################
  #
  #  Definition of "minimal" basis
  #
  ################################################################################
  #     valence basis states
      valence      1  s   1.
  #     ion occupancy
      ion_occ      1  s   0.5
  ################################################################################
  #
  #  Suggested additional basis functions. For production calculations,
  #  uncomment them one after another (the most important basis functions are
  #  listed first).
  #
  #  Basis constructed for dimers: 0.5 A, 0.7 A, 1.0 A, 1.5 A, 2.5 A
  #
  ################################################################################
  #  "First tier" - improvements: -1014.90 meV to -62.69 meV
       hydro 2 s 2.1
       hydro 2 p 3.5
  #  "Second tier" - improvements: -12.89 meV to -1.83 meV
  #     hydro 1 s 0.85
  #     hydro 2 p 3.7
  #     hydro 2 s 1.2
  #     hydro 3 d 7
  #  "Third tier" - improvements: -0.25 meV to -0.12 meV
  #     hydro 4 f 11.2
  #     hydro 3 p 4.8
  #     hydro 4 d 9
  #     hydro 3 s 3.2
  ################################################################################
  #
  #  FHI-aims code project
  #  VB, Fritz-Haber Institut, 2009
  #
  #  Suggested "light" defaults for C atom (to be pasted into control.in file)
  #  Be sure to double-check any results obtained with these settings for post-processing,
  #  e.g., with the "tight" defaults and larger basis sets.
  #
  ################################################################################
    species        C
  #     global species definitions
      nucleus             6
      mass                12.0107
  #
      l_hartree           4
  #
      cut_pot             3.5  1.5  1.0
      basis_dep_cutoff    1e-4
  #
      radial_base         34 5.0
      radial_multiplier   1
      angular_grids specified
        division   0.3326   50
        division   0.5710  110
        division   0.7727  194
        division   0.8772  302
  #      division   0.9334  434
  #      division   0.9625  590
  #      division   0.9924  770
  #      division   1.0230  974
  #      division   1.4589 1202
  #     outer_grid  974
       outer_grid 302
  ################################################################################
  #
  #  Definition of "minimal" basis
  #
  ################################################################################
  #     valence basis states
      valence      2  s   2.
      valence      2  p   2.
  #     ion occupancy
      ion_occ      2  s   1.
      ion_occ      2  p   1.
  ################################################################################
  #
  #  Suggested additional basis functions. For production calculations,
  #  uncomment them one after another (the most important basis functions are
  #  listed first).
  #
  #  Constructed for dimers: 1.0 A, 1.25 A, 1.5 A, 2.0 A, 3.0 A
  #
  ################################################################################
  #  "First tier" - improvements: -1214.57 meV to -155.61 meV
       hydro 2 p 1.7
       hydro 3 d 6
       hydro 2 s 4.9
  #  "Second tier" - improvements: -67.75 meV to -5.23 meV
  #     hydro 4 f 9.8
  #     hydro 3 p 5.2
  #     hydro 3 s 4.3
  #     hydro 5 g 14.4
  #     hydro 3 d 6.2
  #  "Third tier" - improvements: -2.43 meV to -0.60 meV
  #     hydro 2 p 5.6
  #     hydro 2 s 1.4
  #     hydro 3 d 4.9
  #     hydro 4 f 11.2
  #  "Fourth tier" - improvements: -0.39 meV to -0.18 meV
  #     hydro 2 p 2.1
  #     hydro 5 g 16.4
  #     hydro 4 d 13.2
  #     hydro 3 s 13.6
  #     hydro 4 f 17.6
  #  Further basis functions - improvements: -0.08 meV and below
  #     hydro 3 s 2
  #     hydro 3 p 6
  #     hydro 4 d 20
  ################################################################################
  #
  #  FHI-aims code project
  #  VB, Fritz-Haber Institut, 2009
  #
  #  Suggested "light" defaults for N atom (to be pasted into control.in file)
  #  Be sure to double-check any results obtained with these settings for post-processing,
  #  e.g., with the "tight" defaults and larger basis sets.
  #
  ################################################################################
    species        N
  #     global species definitions
      nucleus             7
      mass                14.0067
  #
      l_hartree           4
  #
      cut_pot             3.5  1.5  1.0
      basis_dep_cutoff    1e-4
  #
      radial_base         35 5.0
      radial_multiplier   1
      angular_grids       specified
        division   0.2599   50
        division   0.4601  110
        division   0.5885  194
        division   0.6503  302
  #      division   0.6939  434
  #      division   0.7396  590
  #      division   0.7632  770
  #      division   0.8122  974
  #      division   1.1604 1202
  #      outer_grid  974
        outer_grid  302
  ################################################################################
  #
  #  Definition of "minimal" basis
  #
  ################################################################################
  #     valence basis states
      valence      2  s   2.
      valence      2  p   3.
  #     ion occupancy
      ion_occ      2  s   1.
      ion_occ      2  p   2.
  ################################################################################
  #
  #  Suggested additional basis functions. For production calculations,
  #  uncomment them one after another (the most important basis functions are
  #  listed first).
  #
  #  Constructed for dimers: 1.0 A, 1.1 A, 1.5 A, 2.0 A, 3.0 A
  #
  ################################################################################
  #  "First tier" - improvements: -1193.42 meV to -220.60 meV
       hydro 2 p 1.8
       hydro 3 d 6.8
       hydro 3 s 5.8
  #  "Second tier" - improvements: -80.21 meV to -6.86 meV
  #     hydro 4 f 10.8
  #     hydro 3 p 5.8
  #     hydro 1 s 0.8
  #     hydro 5 g 16
  #     hydro 3 d 4.9
  #  "Third tier" - improvements: -4.29 meV to -0.53 meV
  #     hydro 3 s 16
  #     ionic 2 p auto
  #     hydro 3 d 6.6
  #     hydro 4 f 11.6
  #  "Fourth tier" - improvements: -0.75 meV to -0.25 meV
  #     hydro 2 p 4.5
  #     hydro 2 s 2.4
  #     hydro 5 g 14.4
  #     hydro 4 d 14.4
  #     hydro 4 f 16.8
  # Further basis functions - -0.21 meV and below
  #     hydro 3 p 14.8
  #     hydro 3 s 4.4
  #     hydro 3 d 19.6
  #     hydro 5 g 12.8
  ################################################################################
  #
  #  FHI-aims code project
  #  VB, Fritz-Haber Institut, 2009
  #
  #  Suggested "light" defaults for O atom (to be pasted into control.in file)
  #  Be sure to double-check any results obtained with these settings for post-processing,
  #  e.g., with the "tight" defaults and larger basis sets.
  #
  ################################################################################
    species        O
  #     global species definitions
      nucleus             8
      mass                15.9994
  #
      l_hartree           4
  #
      cut_pot             3.5  1.5  1.0
      basis_dep_cutoff    1e-4
  #
      radial_base         36 5.0
      radial_multiplier   1
       angular_grids specified
        division   0.2659   50
        division   0.4451  110
        division   0.6052  194
        division   0.7543  302
  #      division   0.8014  434
  #      division   0.8507  590
  #      division   0.8762  770
  #      division   0.9023  974
  #      division   1.2339 1202
  #      outer_grid 974
        outer_grid 302
  ################################################################################
  #
  #  Definition of "minimal" basis
  #
  ################################################################################
  #     valence basis states
      valence      2  s   2.
      valence      2  p   4.
  #     ion occupancy
      ion_occ      2  s   1.
      ion_occ      2  p   3.
  ################################################################################
  #
  #  Suggested additional basis functions. For production calculations,
  #  uncomment them one after another (the most important basis functions are
  #  listed first).
  #
  #  Constructed for dimers: 1.0 A, 1.208 A, 1.5 A, 2.0 A, 3.0 A
  #
  ################################################################################
  #  "First tier" - improvements: -699.05 meV to -159.38 meV
       hydro 2 p 1.8
       hydro 3 d 7.6
       hydro 3 s 6.4
  #  "Second tier" - improvements: -49.91 meV to -5.39 meV
  #     hydro 4 f 11.6
  #     hydro 3 p 6.2
  #     hydro 3 d 5.6
  #     hydro 5 g 17.6
  #     hydro 1 s 0.75
  #  "Third tier" - improvements: -2.83 meV to -0.50 meV
  #     ionic 2 p auto
  #     hydro 4 f 10.8
  #     hydro 4 d 4.7
  #     hydro 2 s 6.8
  #  "Fourth tier" - improvements: -0.40 meV to -0.12 meV
  #     hydro 3 p 5
  #     hydro 3 s 3.3
  #     hydro 5 g 15.6
  #     hydro 4 f 17.6
  #     hydro 4 d 14
  # Further basis functions - -0.08 meV and below
  #     hydro 3 s 2.1
  #     hydro 4 d 11.6
  #     hydro 3 p 16
  #     hydro 2 s 17.2
  
  -----------------------------------------------------------------------
  Completed first pass over input file control.in .
  -----------------------------------------------------------------------
  
  
  -----------------------------------------------------------------------
  Parsing geometry.in (first pass over file, find array dimensions only).
  The contents of geometry.in will be repeated verbatim below
  unless switched off by setting 'verbatim_writeout .false.' .
  in the first line of geometry.in .
  -----------------------------------------------------------------------
  
  atom  0.00000 0.00000 0.00000 C
  atom  1.09300 0.00000 0.00000 H
  atom  -0.47961 0.00000 -1.41207 N
  atom  -0.92590 0.89726 -1.60592 H
  atom  0.31889 -0.13624 -2.02848 H
  atom  -0.49584 1.26211 0.72868 C
  atom  -1.58789 1.28919 0.74431 H
  atom  -0.13407 1.27425 1.75947 H
  atom  -0.13407 2.16087 0.22380 H
  atom  -0.39425 -1.28861 0.74398 C
  atom  -0.10189 -1.56493 1.88303 O
  atom  -1.10210 -2.13717 0.06896 O
  atom  -0.52568 -2.91359 0.16844 H
  
  -----------------------------------------------------------------------
  Completed first pass over input file geometry.in .
  -----------------------------------------------------------------------
  

  Basic array size parameters:
  | Number of species                 :        4
  | Number of atoms                   :       13
  | Max. basis fn. angular momentum   :        2
  | Max. atomic/ionic basis occupied n:        2
  | Max. number of basis fn. types    :        2
  | Max. radial fns per species/type  :        3
  | Max. logarithmic grid size        :     1301
  | Max. radial integration grid size :       36
  | Max. angular integration grid size:      302
  | Max. angular grid division number :        8
  | Radial grid for Hartree potential :     1301
  | Number of spin channels           :        1

------------------------------------------------------------
          Reading file control.in.
------------------------------------------------------------
  XC: Using PBE gradient-corrected functionals.
  Spin treatment: No spin polarisation.
  Non-relativistic treatment of kinetic energy.
  Charge =   0.000000E+00: Neutral system requested explicitly.
  Occupation type: Gaussian broadening, width =   0.100000E-01 eV.
  Using pulay charge density mixing.
  Pulay mixing - number of memorized iterations:   10
  Charge density mixing - mixing parameter:     0.2000
  Convergence accuracy of self-consistent charge density:  0.1000E-04
  Convergence accuracy of sum of eigenvalues:  0.1000E-02
  Convergence accuracy of total energy:  0.1000E-05
  Convergence accuracy of forces:  0.1000E-03
  Maximum number of s.-c. iterations  :   100
 
  Reading configuration options for species H                   .
  | Found nuclear charge :   1.0000
  | Found atomic mass :    1.00794000000000      amu
  | Found l_max for Hartree potential  :   4
  | Found cutoff potl. onset [A], width [A], scale factor :    3.50000    1.50000    1.00000
  | Threshold for basis-dependent cutoff potential is   0.100000E-03
  | Found data for basic radial integration grid :    24 points, outermost radius =    5.000 A
  | Found multiplier for basic radial grid :   1
  | Found angular grid specification: user-specified.
  | Specified grid contains     5 separate shells.
  | Check grid settings after all constraints further below.
  | Found free-atom valence shell :  1 s   1.000
  | No ionic wave fns used. Skipping ion_occ.
  | Found hydrogenic basis function :  2 s   2.100
  | Found hydrogenic basis function :  2 p   3.500
  Species H                   : Missing cutoff potential type.
  Defaulting to exp(1/x)/(1-x)^2 type cutoff potential.
  Species H : No 'logarithmic' tag. Using default grid for free atom:
  | Default logarithmic grid data [bohr] : 0.1000E-03 0.1000E+03 0.1012E+01
  Species H : On-site basis accuracy parameter (for Gram-Schmidt orthonormalisation) not specified.
  Using default value basis_acc =  0.1000000E-03.
  Species H                   : Using default innermost maximum threshold i_radial=  2 for radial functions.
  Species H                   : Default cutoff onset for free atom density etc. : 0.35000000E+01 AA.
  Species H                   : Basic radial grid will be enhanced according to radial_multiplier =   1, to contain    24 grid points.
 
  Reading configuration options for species C                   .
  | Found nuclear charge :   6.0000
  | Found atomic mass :    12.0107000000000      amu
  | Found l_max for Hartree potential  :   4
  | Found cutoff potl. onset [A], width [A], scale factor :    3.50000    1.50000    1.00000
  | Threshold for basis-dependent cutoff potential is   0.100000E-03
  | Found data for basic radial integration grid :    34 points, outermost radius =    5.000 A
  | Found multiplier for basic radial grid :   1
  | Found angular grid specification: user-specified.
  | Specified grid contains     5 separate shells.
  | Check grid settings after all constraints further below.
  | Found free-atom valence shell :  2 s   2.000
  | Found free-atom valence shell :  2 p   2.000
  | No ionic wave fns used. Skipping ion_occ.
  | No ionic wave fns used. Skipping ion_occ.
  | Found hydrogenic basis function :  2 p   1.700
  | Found hydrogenic basis function :  3 d   6.000
  | Found hydrogenic basis function :  2 s   4.900
  Species C                   : Missing cutoff potential type.
  Defaulting to exp(1/x)/(1-x)^2 type cutoff potential.
  Species C : No 'logarithmic' tag. Using default grid for free atom:
  | Default logarithmic grid data [bohr] : 0.1000E-03 0.1000E+03 0.1012E+01
  Species C : On-site basis accuracy parameter (for Gram-Schmidt orthonormalisation) not specified.
  Using default value basis_acc =  0.1000000E-03.
  Species C                   : Using default innermost maximum threshold i_radial=  2 for radial functions.
  Species C                   : Default cutoff onset for free atom density etc. : 0.35000000E+01 AA.
  Species C                   : Basic radial grid will be enhanced according to radial_multiplier =   1, to contain    34 grid points.
 
  Reading configuration options for species N                   .
  | Found nuclear charge :   7.0000
  | Found atomic mass :    14.0067000000000      amu
  | Found l_max for Hartree potential  :   4
  | Found cutoff potl. onset [A], width [A], scale factor :    3.50000    1.50000    1.00000
  | Threshold for basis-dependent cutoff potential is   0.100000E-03
  | Found data for basic radial integration grid :    35 points, outermost radius =    5.000 A
  | Found multiplier for basic radial grid :   1
  | Found angular grid specification: user-specified.
  | Specified grid contains     5 separate shells.
  | Check grid settings after all constraints further below.
  | Found free-atom valence shell :  2 s   2.000
  | Found free-atom valence shell :  2 p   3.000
  | No ionic wave fns used. Skipping ion_occ.
  | No ionic wave fns used. Skipping ion_occ.
  | Found hydrogenic basis function :  2 p   1.800
  | Found hydrogenic basis function :  3 d   6.800
  | Found hydrogenic basis function :  3 s   5.800
  Species N                   : Missing cutoff potential type.
  Defaulting to exp(1/x)/(1-x)^2 type cutoff potential.
  Species N : No 'logarithmic' tag. Using default grid for free atom:
  | Default logarithmic grid data [bohr] : 0.1000E-03 0.1000E+03 0.1012E+01
  Species N : On-site basis accuracy parameter (for Gram-Schmidt orthonormalisation) not specified.
  Using default value basis_acc =  0.1000000E-03.
  Species N                   : Using default innermost maximum threshold i_radial=  2 for radial functions.
  Species N                   : Default cutoff onset for free atom density etc. : 0.35000000E+01 AA.
  Species N                   : Basic radial grid will be enhanced according to radial_multiplier =   1, to contain    35 grid points.
 
  Reading configuration options for species O                   .
  | Found nuclear charge :   8.0000
  | Found atomic mass :    15.9994000000000      amu
  | Found l_max for Hartree potential  :   4
  | Found cutoff potl. onset [A], width [A], scale factor :    3.50000    1.50000    1.00000
  | Threshold for basis-dependent cutoff potential is   0.100000E-03
  | Found data for basic radial integration grid :    36 points, outermost radius =    5.000 A
  | Found multiplier for basic radial grid :   1
  | Found angular grid specification: user-specified.
  | Specified grid contains     5 separate shells.
  | Check grid settings after all constraints further below.
  | Found free-atom valence shell :  2 s   2.000
  | Found free-atom valence shell :  2 p   4.000
  | No ionic wave fns used. Skipping ion_occ.
  | No ionic wave fns used. Skipping ion_occ.
  | Found hydrogenic basis function :  2 p   1.800
  | Found hydrogenic basis function :  3 d   7.600
  | Found hydrogenic basis function :  3 s   6.400
  Species O                   : Missing cutoff potential type.
  Defaulting to exp(1/x)/(1-x)^2 type cutoff potential.
  Species O : No 'logarithmic' tag. Using default grid for free atom:
  | Default logarithmic grid data [bohr] : 0.1000E-03 0.1000E+03 0.1012E+01
  Species O : On-site basis accuracy parameter (for Gram-Schmidt orthonormalisation) not specified.
  Using default value basis_acc =  0.1000000E-03.
  Species O                   : Using default innermost maximum threshold i_radial=  2 for radial functions.
  Species O                   : Default cutoff onset for free atom density etc. : 0.35000000E+01 AA.
  Species O                   : Basic radial grid will be enhanced according to radial_multiplier =   1, to contain    36 grid points.
 
  Finished reading input file 'control.in'. Consistency checks are next.
 
  MPI_IN_PLACE appears to work with this MPI implementation.
  | Keeping use_mpi_in_place .true. (see manual).
  Target number of points in a grid batch is not set. Defaulting to  100
  Method for grid partitioning is not set. Defaulting to parallel hash+maxmin partitioning.
  Batch size limit is not set. Defaulting to    200
  By default, will store active basis functions for each batch.
  If in need of memory, prune_basis_once .false. can be used to disable this option.
  communication_type for Hartree potential was not specified.
  Defaulting to calc_hartree .
  Pulay mixer: Number of initial linear mixing iterations not set.
  Defaulting to    0 iterations.
  Work space size for distributed Hartree potential not set.
  Defaulting to   0.200000E+03 MB.
  Algorithm-dependent basis array size parameters:
  | n_max_pulay                         :       10
  Presetting      1001 iterations before the initial mixing cycle
  is restarted anyway using the sc_init_iter criterion / keyword.
  Presetting a factor      1.000 between actual scf density residual
  and density convergence criterion sc_accuracy_rho below which sc_init_iter
  takes no effect.
  Geometry relaxation not requested: no relaxation will be performed.
  Handling of forces: Unphysical translation and rotation will be removed from forces.
  No accuracy limit for integral partition fn. given. Defaulting to  0.1000E-14.
  No threshold value for u(r) in integrations given. Defaulting to  0.1000E-05.
  No accuracy for occupation numbers given. Defaulting to  0.1000E-12.
  No threshold value for occupation numbers given. Defaulting to  0.0000E+00.
  No accuracy for fermi level given. Defaulting to  0.1000E-19.
  Maximum # of iterations to find E_F not set. Defaulting to  200.
  Preferred method for the eigenvalue solver ('KS_method') not specified in 'control.in'.
  Calling BLACS routine to test compilation state
  Since ScaLAPACK support is enabled, defaulting to 'elsi'.
  Will not use alltoall communication since running on < 1024 CPUs.
  Threshold for basis singularities not set.
  Default threshold for basis singularities:  0.1000E-04
  partition_type (choice of integration weights) for integrals was not specified.
  | Using a version of the partition function of Stratmann and coworkers ('stratmann_smoother').
  | At each grid point, the set of atoms used to build the partition table is smoothly restricted to
  | only those atoms whose free-atom density would be non-zero at that grid point.
  Partitioning for Hartree potential was not defined. Using partition_type for integrals.
  | Adjusted default value of keyword multip_moments_threshold to:       0.10000000E-11
  | This value may affect high angular momentum components of the Hartree potential in periodic systems.
  No q(lm)/r^(l+1) cutoff set for long-range Hartree potential.
  | Using default value of  0.100000E-09 .
  | Verify using the multipole_threshold keyword.
  Defaulting to new monopole extrapolation.
  Density update method: automatic selection selected.
------------------------------------------------------------


------------------------------------------------------------
          Reading geometry description geometry.in.
------------------------------------------------------------
  Input structure read successfully.
  The structure contains       13 atoms,  and a total of         48.000 electrons.

  Input geometry:
  | No unit cell requested.
  | Atomic structure:
  |       Atom                x [A]            y [A]            z [A]
  |    1: Species C             0.00000000        0.00000000        0.00000000
  |    2: Species H             1.09300000        0.00000000        0.00000000
  |    3: Species N            -0.47961000        0.00000000       -1.41207000
  |    4: Species H            -0.92590000        0.89726000       -1.60592000
  |    5: Species H             0.31889000       -0.13624000       -2.02848000
  |    6: Species C            -0.49584000        1.26211000        0.72868000
  |    7: Species H            -1.58789000        1.28919000        0.74431000
  |    8: Species H            -0.13407000        1.27425000        1.75947000
  |    9: Species H            -0.13407000        2.16087000        0.22380000
  |   10: Species C            -0.39425000       -1.28861000        0.74398000
  |   11: Species O            -0.10189000       -1.56493000        1.88303000
  |   12: Species O            -1.10210000       -2.13717000        0.06896000
  |   13: Species H            -0.52568000       -2.91359000        0.16844000
  |

  | The smallest distance between any two atoms is         0.97210303 AA.
  |
  | The first atom of this pair is atom number                     12 .
  | The second atom of this pair is atom number                    13 .

  Number of empty states per atom not set in control.in - providing a guess from actual geometry.
  | Total number of empty states used during s.c.f. cycle:       29
  If you use a very high smearing, use empty_states (per atom!) in control.in to increase this value.

  Structure-dependent array size parameters: 
  | Maximum number of distinct radial functions  :       21
  | Maximum number of basis functions            :      119
  | Number of Kohn-Sham states (occupied + empty):       53
------------------------------------------------------------

------------------------------------------------------------
          Preparing all fixed parts of the calculation.
------------------------------------------------------------
  Determining machine precision:
    2.225073858507201E-308
  Setting up grids for atomic and cluster calculations.

  Creating wave function, potential, and density for free atoms.

  Species: H

  List of occupied orbitals and eigenvalues:
    n    l              occ      energy [Ha]    energy [eV]
    1    0           1.0000        -0.237589        -6.4651


  Species: C

  List of occupied orbitals and eigenvalues:
    n    l              occ      energy [Ha]    energy [eV]
    1    0           2.0000       -10.038835      -273.1706
    2    0           2.0000        -0.502696       -13.6791
    2    1           2.0000        -0.191971        -5.2238


  Species: N

  List of occupied orbitals and eigenvalues:
    n    l              occ      energy [Ha]    energy [eV]
    1    0           2.0000       -14.128000      -384.4424
    2    0           2.0000        -0.681077       -18.5330
    2    1           3.0000        -0.259788        -7.0692


  Species: O

  List of occupied orbitals and eigenvalues:
    n    l              occ      energy [Ha]    energy [eV]
    1    0           2.0000       -18.898188      -514.2459
    2    0           2.0000        -0.878505       -23.9053
    2    1           4.0000        -0.331779        -9.0282

  Creating fixed part of basis set: Ionic, confined, hydrogenic.
 
  H                    hydrogenic:
 
  List of hydrogenic basis orbitals: 
    n    l      effective z      eigenvalue [eV]  inner max. [A]     outer max. [A]     outer radius [A]   
    2    0         2.100000       -14.9728           0.193243           1.317208           4.583499
    2    1         3.500000       -41.6669           0.602369           0.602369           3.723403
 
 
  C                    hydrogenic:
 
  List of hydrogenic basis orbitals: 
    n    l      effective z      eigenvalue [eV]  inner max. [A]     outer max. [A]     outer radius [A]   
    2    1         1.700000        -9.7616           1.230570           1.230570           4.607917
    3    2         6.000000       -54.4224           0.792453           0.792453           3.883070
    2    0         4.900000       -81.6679           0.082559           0.562749           3.078220
 
 
  N                    hydrogenic:
 
  List of hydrogenic basis orbitals: 
    n    l      effective z      eigenvalue [eV]  inner max. [A]     outer max. [A]     outer radius [A]   
    2    1         1.800000       -10.9749           1.177451           1.177451           4.573712
    3    2         6.800000       -69.9026           0.704619           0.704619           3.538137
    3    0         5.800000       -50.8545           0.067388           1.191934           4.250239
 
 
  O                    hydrogenic:
 
  List of hydrogenic basis orbitals: 
    n    l      effective z      eigenvalue [eV]  inner max. [A]     outer max. [A]     outer radius [A]   
    2    1         1.800000       -10.9749           1.164242           1.164242           4.578029
    3    2         7.600000       -87.3180           0.624125           0.624125           3.251020
    3    0         6.400000       -61.9207           0.061167           1.081902           4.001998
 

  Adding cutoff potential to free-atom effective potential.
  Creating atomic-like basis functions for current effective potential.

  Species H                   :

  List of atomic basis orbitals and eigenvalues:
    n    l      energy [Ha]    energy [eV]    outer radius [A]
    1    0        -0.237589        -6.4651       4.527807


  Species C                   :

  List of atomic basis orbitals and eigenvalues:
    n    l      energy [Ha]    energy [eV]    outer radius [A]
    1    0       -10.038835      -273.1706       1.934409
    2    0        -0.502696       -13.6791       4.496620
    2    1        -0.191971        -5.2238       4.551928


  Species N                   :

  List of atomic basis orbitals and eigenvalues:
    n    l      energy [Ha]    energy [eV]    outer radius [A]
    1    0       -14.128000      -384.4424       1.637919
    2    0        -0.681077       -18.5330       4.463241
    2    1        -0.259788        -7.0692       4.518138


  Species O                   :

  List of atomic basis orbitals and eigenvalues:
    n    l      energy [Ha]    energy [eV]    outer radius [A]
    1    0       -18.898188      -514.2459       1.415765
    2    0        -0.878505       -23.9053       4.413171
    2    1        -0.331779        -9.0282       4.522403

  Assembling full basis from fixed parts.
  | Species H :   atomic orbital   1 s accepted.
  | Species H :    hydro orbital   2 s accepted.
  | Species H :    hydro orbital   2 p accepted.
  | Species C :   atomic orbital   1 s accepted.
  | Species C :    hydro orbital   2 s accepted.
  | Species C :   atomic orbital   2 s accepted.
  | Species C :   atomic orbital   2 p accepted.
  | Species C :    hydro orbital   2 p accepted.
  | Species C :    hydro orbital   3 d accepted.
  | Species N :   atomic orbital   1 s accepted.
  | Species N :    hydro orbital   3 s accepted.
  | Species N :   atomic orbital   2 s accepted.
  | Species N :   atomic orbital   2 p accepted.
  | Species N :    hydro orbital   2 p accepted.
  | Species N :    hydro orbital   3 d accepted.
  | Species O :   atomic orbital   1 s accepted.
  | Species O :    hydro orbital   3 s accepted.
  | Species O :   atomic orbital   2 s accepted.
  | Species O :   atomic orbital   2 p accepted.
  | Species O :    hydro orbital   2 p accepted.
  | Species O :    hydro orbital   3 d accepted.
 
  Basis size parameters after reduction:
  | Total number of radial functions:       21
  | Total number of basis functions :      119
 
  Per-task memory consumption for arrays in subroutine allocate_ext:
  |           5.250512MB.
  Testing on-site integration grid accuracy.
  |  Species  Function  <phi|h_atom|phi> (log., in eV)  <phi|h_atom|phi> (rad., in eV)
           1        1                 -6.4663192853                 -6.4651273558
           1        2                 13.7111246313                 13.7170609718
           1        3                 25.2673269279                 25.2674696378
           2        4               -273.1705927641               -273.1705631568
           2        5                -10.7109323383                -10.7107120029
           2        6                 17.4381822266                 17.4352413244
           2        7                 -5.2255326521                 -5.2270484734
           2        8                  8.6835629259                  8.6603288385
           2        9                 27.4952418996                 27.4953360207
           3       10               -384.4424306495               -384.4423701208
           3       11                 12.5842251816                 12.5842222903
           3       12                -15.7264628251                -15.7264433455
           3       13                 -7.0696854293                 -7.0701769954
           3       14                  8.8090390882                  8.7901077751
           3       15                 35.9586762123                 35.9588528632
           4       16               -514.2458688638               -514.2457643834
           4       17                 15.1795651126                 15.1795290741
           4       18                -21.5359799773                -21.5360846186
           4       19                 -9.0283069236                 -9.0284644067
           4       20                  8.3027758564                  8.2834874195
           4       21                 45.8339351984                 45.8338762259

  Preparing densities etc. for the partition functions (integrals / Hartree potential).

  Preparations completed.
  max(cpu_time)          :      0.166 s.
  Wall clock time (cpu1) :      0.168 s.
------------------------------------------------------------

------------------------------------------------------------
          Begin self-consistency loop: Initialization.

          Date     :  20200702, Time     :  111912.201
------------------------------------------------------------

  Initializing index lists of integration centers etc. from given atomic structure:
  | Number of centers in hartree potential         :        13
  | Number of centers in hartree multipole         :        13
  | Number of centers in electron density summation:        13
  | Number of centers in basis integrals           :        13
  | Number of centers in integrals                 :        13
  | Number of centers in hamiltonian               :        13
  * Using 20 tasks for Scalapack Eigenvalue solver.
  Detailed listing of tasks and assigned k-points:
  (for non-periodic systems, the "k-point" denotes an internal label only)
   Task     0 k-point     1 on r07c01.bullx
   Task     1 k-point     1 on r07c01.bullx
   Task     2 k-point     1 on r07c01.bullx
   Task     3 k-point     1 on r07c01.bullx
   Task     4 k-point     1 on r07c01.bullx
   Task     5 k-point     1 on r07c01.bullx
   Task     6 k-point     1 on r07c01.bullx
   Task     7 k-point     1 on r07c01.bullx
   Task     8 k-point     1 on r07c01.bullx
   Task     9 k-point     1 on r07c01.bullx
   Task    10 k-point     1 on r07c01.bullx
   Task    11 k-point     1 on r07c01.bullx
   Task    12 k-point     1 on r07c01.bullx
   Task    13 k-point     1 on r07c01.bullx
   Task    14 k-point     1 on r07c01.bullx
   Task    15 k-point     1 on r07c01.bullx
   Task    16 k-point     1 on r07c01.bullx
   Task    17 k-point     1 on r07c01.bullx
   Task    18 k-point     1 on r07c01.bullx
   Task    19 k-point     1 on r07c01.bullx
  Tasks:    20 split into      5 X      4 BLACS grid
  Calculating block size based on n_basis =          119  max_nprow =            5  max_npcol =            4
  ScaLAPACK block size set to:           16
  Allocating        0.008 MB for ovlp
  Allocating        0.008 MB for ham
  Allocating        0.008 MB for eigenvec
  Required Scalapack workspace - INTEGER:            1  REAL:             1
  Partitioning the integration grid into batches with parallel hashing+maxmin method.
  | Number of batches:      804
  | Maximal batch size:     194
  | Minimal batch size:      49
  | Average batch size:      86.624
  | Standard deviation of batch sizes:      21.093

  Integration load balanced across    20 MPI tasks.
  Work distribution over tasks is as follows:
  Task     0 has       3515 integration points.
  Task     1 has       3450 integration points.
  Task     2 has       3451 integration points.
  Task     3 has       3500 integration points.
  Task     4 has       3493 integration points.
  Task     5 has       3435 integration points.
  Task     6 has       3480 integration points.
  Task     7 has       3438 integration points.
  Task     8 has       3481 integration points.
  Task     9 has       3446 integration points.
  Task    10 has       3486 integration points.
  Task    11 has       3514 integration points.
  Task    12 has       3487 integration points.
  Task    13 has       3520 integration points.
  Task    14 has       3568 integration points.
  Task    15 has       3422 integration points.
  Task    16 has       3517 integration points.
  Task    17 has       3465 integration points.
  Task    18 has       3486 integration points.
  Task    19 has       3492 integration points.
  Initializing partition tables, free-atom densities, potentials, etc. across the integration grid (initialize_grid_storage).
  | initialize_grid_storage: Actual outermost partition radius vs. multipole_radius_free
  | (-- VB: in principle, multipole_radius_free should be larger, hence this output)
  | Species        1: Confinement radius =              4.999999999999999 AA, multipole_radius_free =              5.054417573612229 AA.
  | Species        1: outer_partition_radius set to              5.054417573612229 AA .
  | Species        2: Confinement radius =              4.999999999999999 AA, multipole_radius_free =              5.019602836301480 AA.
  | Species        2: outer_partition_radius set to              5.019602836301480 AA .
  | Species        3: Confinement radius =              4.999999999999999 AA, multipole_radius_free =              5.043624274424571 AA.
  | Species        3: outer_partition_radius set to              5.043624274424571 AA .
  | Species        4: Confinement radius =              4.999999999999999 AA, multipole_radius_free =              5.048384829883283 AA.
  | Species        4: outer_partition_radius set to              5.048384829883283 AA .
  | Original list of interatomic distances with          13 x         13 entries is created.
  | Net number of integration points:    69646
  | of which are non-zero points    :    59609
  Renormalizing the initial density to the exact electron count on the 3D integration grid.
  | Initial density: Formal number of electrons (from input files) :      48.0000000000
  | Integrated number of electrons on 3D grid     :      47.9999403175
  | Charge integration error                      :      -0.0000596825
  | Normalization factor for density and gradient :       1.0000012434
  Obtaining max. number of non-zero basis functions in each batch (get_n_compute_maxes).
  | Maximal number of non-zero basis functions:      118 in task     0
  | Maximal number of non-zero basis functions:      117 in task     1
  | Maximal number of non-zero basis functions:      117 in task     2
  | Maximal number of non-zero basis functions:      118 in task     3
  | Maximal number of non-zero basis functions:      118 in task     4
  | Maximal number of non-zero basis functions:      118 in task     5
  | Maximal number of non-zero basis functions:      118 in task     6
  | Maximal number of non-zero basis functions:      118 in task     7
  | Maximal number of non-zero basis functions:      119 in task     8
  | Maximal number of non-zero basis functions:      118 in task     9
  | Maximal number of non-zero basis functions:      118 in task    10
  | Maximal number of non-zero basis functions:      117 in task    11
  | Maximal number of non-zero basis functions:      118 in task    12
  | Maximal number of non-zero basis functions:      117 in task    13
  | Maximal number of non-zero basis functions:      118 in task    14
  | Maximal number of non-zero basis functions:      118 in task    15
  | Maximal number of non-zero basis functions:      119 in task    16
  | Maximal number of non-zero basis functions:      118 in task    17
  | Maximal number of non-zero basis functions:      117 in task    18
  | Maximal number of non-zero basis functions:      117 in task    19
  Selecting the method for density update.
  Loop over occupied states selected for charge density update.
  Allocating        0.050 MB for KS_eigenvector
  Integrating Hamiltonian matrix: batch-based integration.
  Time summed over all CPUs for integration: real work        0.520 s, elapsed        0.549 s
  Integrating overlap matrix.
  Time summed over all CPUs for integration: real work        0.213 s, elapsed        0.226 s
  Deallocating overlap matrix.

  Updating Kohn-Sham eigenvalues and eigenvectors using ELSI and the ELPA eigensolver.
  ELPA settings:
  | ELPA solver          1
  | Time full => band           :     0.001 s
  | Time band => tridiagonal    :     0.001 s
  | Time solve tridiagonal      :     0.001 s
  Overlap matrix is nonsingular
  | Lowest eigenvalue of overlap  :  0.44E-02
  | Highest eigenvalue of overlap :  0.61E+01
  Finished singularity check of overlap matrix
  | Time :     0.003 s
  Finished Cholesky decomposition
  | Time :     0.001 s
  Finished transformation to standard eigenproblem
  | Time :     0.001 s
  Starting ELPA eigensolver
  | Time full => tridiagonal    :     0.002 s
  | Time solve tridiagonal      :     0.000 s
  | Time ev tridiagonal => full :     0.001 s
  Finished solving standard eigenproblem
  | Time :     0.003 s
  Finished back-transformation of eigenvectors
  | Time :     0.000 s

  Obtaining occupation numbers and chemical potential using ELSI.
  | Chemical potential (Fermi level):    -9.93834245eV
  Writing Kohn-Sham eigenvalues.

  State    Occupation    Eigenvalue [Ha]    Eigenvalue [eV]
      1       2.00000         -19.007488         -517.22005
      2       2.00000         -18.977681         -516.40897
      3       2.00000         -14.245793         -387.64775
      4       2.00000         -10.166897         -276.65533
      5       2.00000         -10.141256         -275.95761
      6       2.00000         -10.131885         -275.70263
      7       2.00000          -1.185378          -32.25577
      8       2.00000          -1.094541          -29.78399
      9       2.00000          -0.991957          -26.99253
     10       2.00000          -0.859597          -23.39083
     11       2.00000          -0.760772          -20.70167
     12       2.00000          -0.679718          -18.49607
     13       2.00000          -0.620980          -16.89772
     14       2.00000          -0.600460          -16.33935
     15       2.00000          -0.592561          -16.12441
     16       2.00000          -0.574628          -15.63642
     17       2.00000          -0.552376          -15.03091
     18       2.00000          -0.533964          -14.52991
     19       2.00000          -0.517535          -14.08284
     20       2.00000          -0.491759          -13.38144
     21       2.00000          -0.464559          -12.64128
     22       2.00000          -0.429737          -11.69375
     23       2.00000          -0.412563          -11.22642
     24       2.00000          -0.379807          -10.33508
     25       0.00000          -0.159234           -4.33299
     26       0.00000          -0.062202           -1.69261
     27       0.00000          -0.029325           -0.79797
     28       0.00000          -0.025594           -0.69645
     29       0.00000          -0.007116           -0.19364
     30       0.00000           0.007316            0.19909
     31       0.00000           0.019799            0.53877
     32       0.00000           0.029014            0.78951
     33       0.00000           0.035765            0.97321
     34       0.00000           0.081396            2.21491
     35       0.00000           0.096978            2.63889
     36       0.00000           0.134272            3.65374
     37       0.00000           0.156726            4.26474
     38       0.00000           0.197332            5.36967
     39       0.00000           0.206760            5.62622
     40       0.00000           0.233084            6.34253
     41       0.00000           0.258686            7.03921
     42       0.00000           0.261852            7.12535
     43       0.00000           0.292928            7.97099
     44       0.00000           0.311199            8.46816
     45       0.00000           0.346223            9.42120
     46       0.00000           0.359276            9.77641
     47       0.00000           0.381246           10.37424
     48       0.00000           0.398247           10.83684
     49       0.00000           0.412519           11.22521
     50       0.00000           0.488833           13.30181
     51       0.00000           0.509835           13.87331
     52       0.00000           0.534381           14.54125
     53       0.00000           0.551605           15.00994

  Highest occupied state (VBM) at    -10.33507619 eV
  | Occupation number:      2.00000000

  Lowest unoccupied state (CBM) at    -4.33298537 eV
  | Occupation number:      0.00000000

  Overall HOMO-LUMO gap:      6.00209082 eV.
  Calculating total energy contributions from superposition of free atom densities.

  Total energy components:
  | Sum of eigenvalues            :        -188.82778444 Ha       -5138.26544670 eV
  | XC energy correction          :         -41.78380916 Ha       -1136.99529689 eV
  | XC potential correction       :          53.71310017 Ha        1461.60782142 eV
  | Free-atom electrostatic energy:        -146.86304154 Ha       -3996.34669212 eV
  | Hartree energy correction     :           0.00000000 Ha           0.00000000 eV
  | vdW energy correction         :           0.00000000 Ha           0.00000000 eV
  | Entropy correction            :           0.00000000 Ha           0.00000000 eV
  | ---------------------------
  | Total energy                  :        -323.76153497 Ha       -8809.99961429 eV
  | Total energy, T -> 0          :        -323.76153497 Ha       -8809.99961429 eV  <-- do not rely on this value for anything but (periodic) metals
  | Electronic free energy        :        -323.76153497 Ha       -8809.99961429 eV

  Derived energy quantities:
  | Kinetic energy                :         320.48507086 Ha        8720.84248962 eV
  | Electrostatic energy          :        -602.46279667 Ha      -16393.84680702 eV
  | Energy correction for multipole
  | error in Hartree potential    :           0.00000000 Ha           0.00000000 eV
  | Sum of eigenvalues per atom                           :        -395.25118821 eV
  | Total energy (T->0) per atom                          :        -677.69227802 eV  <-- do not rely on this value for anything but (periodic) metals
  | Electronic free energy per atom                       :        -677.69227802 eV
  Initialize hartree_potential_storage
  Max. number of atoms included in rho_multipole:           13

  End scf initialization - timings             :  max(cpu_time)    wall_clock(cpu1)
  | Time for scf. initialization               :        0.095 s           0.095 s
  | Boundary condition initialization          :        0.000 s           0.000 s
  | Integration                                :        0.040 s           0.040 s
  | Solution of K.-S. eqns.                    :        0.009 s           0.009 s
  | Grid partitioning                          :        0.022 s           0.022 s
  | Preloading free-atom quantities on grid    :        0.002 s           0.002 s
  | Free-atom superposition energy             :        0.005 s           0.005 s
  | Total energy evaluation                    :        0.000 s           0.000 s

  Partial memory accounting:
  | Current value for overall tracked memory usage on task 0  :           0.133 MB
  | Peak value for overall tracked memory usage on task 0     :           0.854 MB after allocating wave
  | Largest tracked array allocation on task 0 so far         :           0.183 MB  when allocating H_times_psi
  Note:  These values currently only include a subset of arrays which are explicitly tracked.
  The "true" memory usage will be greater.
------------------------------------------------------------

------------------------------------------------------------
          Begin self-consistency iteration #    1

  Date     :  20200702, Time     :  111912.296
------------------------------------------------------------
  Evaluating new KS density.
  Integration grid: deviation in total charge (<rho> - N_e) =   7.105427E-15
  Pulay mixing of updated and previous charge densities.

  Evaluating partitioned Hartree potential by multipole expansion.
  | Analytical far-field extrapolation by fixed multipoles:
  | Hartree multipole sum: apparent total charge =  -0.168812E-03
  Summing up the Hartree potential.
  Time summed over all CPUs for potential: real work        0.420 s, elapsed        0.429 s
  | RMS charge density error from multipole expansion :   0.583032E-02

  Integrating Hamiltonian matrix: batch-based integration.
  Time summed over all CPUs for integration: real work        0.510 s, elapsed        0.544 s

  Updating Kohn-Sham eigenvalues and eigenvectors using ELSI and the ELPA eigensolver.
  ELPA settings:
  | ELPA solver          1
  Finished transformation to standard eigenproblem
  | Time :     0.000 s
  Starting ELPA eigensolver
  | Time full => tridiagonal    :     0.002 s
  | Time solve tridiagonal      :     0.000 s
  | Time ev tridiagonal => full :     0.000 s
  Finished solving standard eigenproblem
  | Time :     0.003 s
  Finished back-transformation of eigenvectors
  | Time :     0.000 s

  Obtaining occupation numbers and chemical potential using ELSI.
  | Chemical potential (Fermi level):    -4.65136307eV
  Writing Kohn-Sham eigenvalues.

  State    Occupation    Eigenvalue [Ha]    Eigenvalue [eV]
      1       2.00000         -18.893318         -514.11334
      2       2.00000         -18.837744         -512.60110
      3       2.00000         -14.094739         -383.53736
      4       2.00000         -10.112998         -275.18866
      5       2.00000         -10.062081         -273.80316
      6       2.00000         -10.032651         -273.00234
      7       2.00000          -1.131447          -30.78824
      8       2.00000          -1.029254          -28.00742
      9       2.00000          -0.921044          -25.06289
     10       2.00000          -0.793434          -21.59043
     11       2.00000          -0.708346          -19.27506
     12       2.00000          -0.631707          -17.18962
     13       2.00000          -0.558061          -15.18562
     14       2.00000          -0.542845          -14.77156
     15       2.00000          -0.531310          -14.45767
     16       2.00000          -0.515523          -14.02810
     17       2.00000          -0.491722          -13.38045
     18       2.00000          -0.472251          -12.85060
     19       2.00000          -0.452602          -12.31592
     20       2.00000          -0.434780          -11.83097
     21       2.00000          -0.403037          -10.96719
     22       2.00000          -0.366438           -9.97127
     23       2.00000          -0.338966           -9.22374
     24       2.00000          -0.306446           -8.33881
     25       0.00000          -0.121882           -3.31657
     26       0.00000          -0.035758           -0.97301
     27       0.00000          -0.007919           -0.21548
     28       0.00000           0.014616            0.39771
     29       0.00000           0.023882            0.64987
     30       0.00000           0.047313            1.28746
     31       0.00000           0.057806            1.57299
     32       0.00000           0.067986            1.85001
     33       0.00000           0.076500            2.08167
     34       0.00000           0.122376            3.33003
     35       0.00000           0.138732            3.77508
     36       0.00000           0.163434            4.44728
     37       0.00000           0.186198            5.06672
     38       0.00000           0.226891            6.17403
     39       0.00000           0.237176            6.45388
     40       0.00000           0.270113            7.35015
     41       0.00000           0.293537            7.98754
     42       0.00000           0.300038            8.16446
     43       0.00000           0.329285            8.96031
     44       0.00000           0.348494            9.48300
     45       0.00000           0.390349           10.62194
     46       0.00000           0.400687           10.90326
     47       0.00000           0.422353           11.49281
     48       0.00000           0.438964           11.94482
     49       0.00000           0.445743           12.12929
     50       0.00000           0.525756           14.30655
     51       0.00000           0.548250           14.91863
     52       0.00000           0.566133           15.40527
     53       0.00000           0.590138           16.05847

  Highest occupied state (VBM) at     -8.33880668 eV
  | Occupation number:      2.00000000

  Lowest unoccupied state (CBM) at    -3.31656604 eV
  | Occupation number:      0.00000000

  Overall HOMO-LUMO gap:      5.02224065 eV.

  Total energy components:
  | Sum of eigenvalues            :        -185.32548584 Ha       -5042.96305280 eV
  | XC energy correction          :         -42.11531605 Ha       -1146.01605845 eV
  | XC potential correction       :          54.14436450 Ha        1473.34312086 eV
  | Free-atom electrostatic energy:        -146.86304154 Ha       -3996.34669212 eV
  | Hartree energy correction     :          -3.41729665 Ha         -92.98937298 eV
  | vdW energy correction         :           0.00000000 Ha           0.00000000 eV
  | Entropy correction            :           0.00000000 Ha           0.00000000 eV
  | ---------------------------
  | Total energy                  :        -323.57677558 Ha       -8804.97205548 eV
  | Total energy, T -> 0          :        -323.57677558 Ha       -8804.97205548 eV  <-- do not rely on this value for anything but (periodic) metals
  | Electronic free energy        :        -323.57677558 Ha       -8804.97205548 eV

  Derived energy quantities:
  | Kinetic energy                :         322.29334247 Ha        8770.04806372 eV
  | Electrostatic energy          :        -603.75480199 Ha      -16429.00406075 eV
  | Energy correction for multipole
  | error in Hartree potential    :           0.01231800 Ha           0.33518983 eV
  | Sum of eigenvalues per atom                           :        -387.92023483 eV
  | Total energy (T->0) per atom                          :        -677.30554273 eV  <-- do not rely on this value for anything but (periodic) metals
  | Electronic free energy per atom                       :        -677.30554273 eV

  Self-consistency convergence accuracy:
  | Change of charge density      :  0.5872E+00
  | Change of sum of eigenvalues  :  0.9530E+02 eV
  | Change of total energy        :  0.5028E+01 eV

  End self-consistency iteration #     1       :  max(cpu_time)    wall_clock(cpu1)
  | Time for this iteration                    :        0.077 s           0.078 s
  | Charge density update                      :        0.021 s           0.022 s
  | Density mixing                             :        0.000 s           0.000 s
  | Hartree multipole update                   :        0.001 s           0.002 s
  | Hartree multipole summation                :        0.022 s           0.022 s
  | Integration                                :        0.028 s           0.028 s
  | Solution of K.-S. eqns.                    :        0.004 s           0.003 s
  | Total energy evaluation                    :        0.000 s           0.000 s

  Partial memory accounting:
  | Current value for overall tracked memory usage on task 0  :           0.133 MB
  | Peak value for overall tracked memory usage on task 0     :           0.865 MB after allocating gradient_basis_wave
  | Largest tracked array allocation on task 0 so far         :           0.549 MB  when allocating gradient_basis_wave
  Note:  These values currently only include a subset of arrays which are explicitly tracked.
  The "true" memory usage will be greater.
------------------------------------------------------------

------------------------------------------------------------
          Begin self-consistency iteration #    2

  Date     :  20200702, Time     :  111912.384
------------------------------------------------------------
  Evaluating new KS density.
  Integration grid: deviation in total charge (<rho> - N_e) =   0.000000E+00
  Pulay mixing of updated and previous charge densities.

  Evaluating partitioned Hartree potential by multipole expansion.
  | Analytical far-field extrapolation by fixed multipoles:
  | Hartree multipole sum: apparent total charge =  -0.309119E-03
  Summing up the Hartree potential.
  Time summed over all CPUs for potential: real work        0.419 s, elapsed        0.428 s
  | RMS charge density error from multipole expansion :   0.138562E-01

  Integrating Hamiltonian matrix: batch-based integration.
  Time summed over all CPUs for integration: real work        0.509 s, elapsed        0.540 s

  Updating Kohn-Sham eigenvalues and eigenvectors using ELSI and the ELPA eigensolver.
  ELPA settings:
  | ELPA solver          1
  Finished transformation to standard eigenproblem
  | Time :     0.000 s
  Starting ELPA eigensolver
  | Time full => tridiagonal    :     0.002 s
  | Time solve tridiagonal      :     0.000 s
  | Time ev tridiagonal => full :     0.000 s
  Finished solving standard eigenproblem
  | Time :     0.003 s
  Finished back-transformation of eigenvectors
  | Time :     0.000 s

  Obtaining occupation numbers and chemical potential using ELSI.
  | Chemical potential (Fermi level):    -3.33260321eV
  Highest occupied state (VBM) at     -6.31053822 eV
  | Occupation number:      2.00000000

  Lowest unoccupied state (CBM) at    -2.04036584 eV
  | Occupation number:      0.00000000

  Overall HOMO-LUMO gap:      4.27017238 eV.

  Checking to see if s.c.f. parameters should be adjusted.

  Total energy components:
  | Sum of eigenvalues            :        -181.64012942 Ha       -4942.67940233 eV
  | XC energy correction          :         -42.47846404 Ha       -1155.89781809 eV
  | XC potential correction       :          54.61527179 Ha        1486.15716036 eV
  | Free-atom electrostatic energy:        -146.86304154 Ha       -3996.34669212 eV
  | Hartree energy correction     :          -7.13041702 Ha        -194.02851919 eV
  | vdW energy correction         :           0.00000000 Ha           0.00000000 eV
  | Entropy correction            :           0.00000000 Ha           0.00000000 eV
  | ---------------------------
  | Total energy                  :        -323.49678023 Ha       -8802.79527136 eV
  | Total energy, T -> 0          :        -323.49678023 Ha       -8802.79527136 eV  <-- do not rely on this value for anything but (periodic) metals
  | Electronic free energy        :        -323.49678023 Ha       -8802.79527136 eV

  Derived energy quantities:
  | Kinetic energy                :         323.62313862 Ha        8806.23365819 eV
  | Electrostatic energy          :        -604.64145481 Ha      -16453.13111146 eV
  | Energy correction for multipole
  | error in Hartree potential    :           0.02719056 Ha           0.73989276 eV
  | Sum of eigenvalues per atom                           :        -380.20610787 eV
  | Total energy (T->0) per atom                          :        -677.13809780 eV  <-- do not rely on this value for anything but (periodic) metals
  | Electronic free energy per atom                       :        -677.13809780 eV

  Self-consistency convergence accuracy:
  | Change of charge density      :  0.3665E+00
  | Change of sum of eigenvalues  :  0.1003E+03 eV
  | Change of total energy        :  0.2177E+01 eV

  End self-consistency iteration #     2       :  max(cpu_time)    wall_clock(cpu1)
  | Time for this iteration                    :        0.093 s           0.087 s
  | Charge density update                      :        0.038 s           0.032 s
  | Density mixing                             :        0.001 s           0.000 s
  | Hartree multipole update                   :        0.001 s           0.002 s
  | Hartree multipole summation                :        0.022 s           0.021 s
  | Integration                                :        0.027 s           0.028 s
  | Solution of K.-S. eqns.                    :        0.004 s           0.003 s
  | Total energy evaluation                    :        0.000 s           0.001 s

  Partial memory accounting:
  | Current value for overall tracked memory usage on task 0  :           0.134 MB
  | Peak value for overall tracked memory usage on task 0     :           0.865 MB after allocating gradient_basis_wave
  | Largest tracked array allocation on task 0 so far         :           0.549 MB  when allocating gradient_basis_wave
  Note:  These values currently only include a subset of arrays which are explicitly tracked.
  The "true" memory usage will be greater.
------------------------------------------------------------

------------------------------------------------------------
          Begin self-consistency iteration #    3

  Date     :  20200702, Time     :  111912.483
------------------------------------------------------------
  Evaluating new KS density.
  Integration grid: deviation in total charge (<rho> - N_e) =   1.421085E-14
  Pulay mixing of updated and previous charge densities.

  Evaluating partitioned Hartree potential by multipole expansion.
  | Analytical far-field extrapolation by fixed multipoles:
  | Hartree multipole sum: apparent total charge =  -0.411591E-03
  Summing up the Hartree potential.
  Time summed over all CPUs for potential: real work        0.419 s, elapsed        0.428 s
  | RMS charge density error from multipole expansion :   0.219837E-01

  Integrating Hamiltonian matrix: batch-based integration.
  Time summed over all CPUs for integration: real work        0.509 s, elapsed        0.540 s

  Updating Kohn-Sham eigenvalues and eigenvectors using ELSI and the ELPA eigensolver.
  ELPA settings:
  | ELPA solver          1
  Finished transformation to standard eigenproblem
  | Time :     0.000 s
  Starting ELPA eigensolver
  | Time full => tridiagonal    :     0.002 s
  | Time solve tridiagonal      :     0.000 s
  | Time ev tridiagonal => full :     0.000 s
  Finished solving standard eigenproblem
  | Time :     0.002 s
  Finished back-transformation of eigenvectors
  | Time :     0.000 s

  Obtaining occupation numbers and chemical potential using ELSI.
  | Chemical potential (Fermi level):    -2.62326731eV
  Highest occupied state (VBM) at     -5.62258732 eV
  | Occupation number:      2.00000000

  Lowest unoccupied state (CBM) at    -1.33152397 eV
  | Occupation number:      0.00000000

  Overall HOMO-LUMO gap:      4.29106334 eV.

  Total energy components:
  | Sum of eigenvalues            :        -180.31198296 Ha       -4906.53869831 eV
  | XC energy correction          :         -42.62929289 Ha       -1160.00207981 eV
  | XC potential correction       :          54.80762844 Ha        1491.39145113 eV
  | Free-atom electrostatic energy:        -146.86304154 Ha       -3996.34669212 eV
  | Hartree energy correction     :          -8.48687024 Ha        -230.93948935 eV
  | vdW energy correction         :           0.00000000 Ha           0.00000000 eV
  | Entropy correction            :           0.00000000 Ha           0.00000000 eV
  | ---------------------------
  | Total energy                  :        -323.48355919 Ha       -8802.43550844 eV
  | Total energy, T -> 0          :        -323.48355919 Ha       -8802.43550844 eV  <-- do not rely on this value for anything but (periodic) metals
  | Electronic free energy        :        -323.48355919 Ha       -8802.43550844 eV

  Derived energy quantities:
  | Kinetic energy                :         323.15922427 Ha        8793.60990645 eV
  | Electrostatic energy          :        -604.01349057 Ha      -16436.04333509 eV
  | Energy correction for multipole
  | error in Hartree potential    :           0.03863525 Ha           1.05131855 eV
  | Sum of eigenvalues per atom                           :        -377.42605372 eV
  | Total energy (T->0) per atom                          :        -677.11042373 eV  <-- do not rely on this value for anything but (periodic) metals
  | Electronic free energy per atom                       :        -677.11042373 eV

  Self-consistency convergence accuracy:
  | Change of charge density      :  0.2049E+00
  | Change of sum of eigenvalues  :  0.3614E+02 eV
  | Change of total energy        :  0.3598E+00 eV

  End self-consistency iteration #     3       :  max(cpu_time)    wall_clock(cpu1)
  | Time for this iteration                    :        0.090 s           0.082 s
  | Charge density update                      :        0.036 s           0.027 s
  | Density mixing                             :        0.001 s           0.001 s
  | Hartree multipole update                   :        0.001 s           0.001 s
  | Hartree multipole summation                :        0.022 s           0.021 s
  | Integration                                :        0.027 s           0.027 s
  | Solution of K.-S. eqns.                    :        0.003 s           0.003 s
  | Total energy evaluation                    :        0.000 s           0.001 s

  Partial memory accounting:
  | Current value for overall tracked memory usage on task 0  :           0.134 MB
  | Peak value for overall tracked memory usage on task 0     :           0.866 MB after allocating gradient_basis_wave
  | Largest tracked array allocation on task 0 so far         :           0.549 MB  when allocating gradient_basis_wave
  Note:  These values currently only include a subset of arrays which are explicitly tracked.
  The "true" memory usage will be greater.
------------------------------------------------------------

------------------------------------------------------------
          Begin self-consistency iteration #    4

  Date     :  20200702, Time     :  111912.580
------------------------------------------------------------
  Evaluating new KS density.
  Integration grid: deviation in total charge (<rho> - N_e) =   1.421085E-14
  Pulay mixing of updated and previous charge densities.

  Evaluating partitioned Hartree potential by multipole expansion.
  | Analytical far-field extrapolation by fixed multipoles:
  | Hartree multipole sum: apparent total charge =  -0.444167E-03
  Summing up the Hartree potential.
  Time summed over all CPUs for potential: real work        0.420 s, elapsed        0.428 s
  | RMS charge density error from multipole expansion :   0.251434E-01

  Integrating Hamiltonian matrix: batch-based integration.
  Time summed over all CPUs for integration: real work        0.510 s, elapsed        0.540 s

  Updating Kohn-Sham eigenvalues and eigenvectors using ELSI and the ELPA eigensolver.
  ELPA settings:
  | ELPA solver          1
  Finished transformation to standard eigenproblem
  | Time :     0.000 s
  Starting ELPA eigensolver
  | Time full => tridiagonal    :     0.002 s
  | Time solve tridiagonal      :     0.000 s
  | Time ev tridiagonal => full :     0.000 s
  Finished solving standard eigenproblem
  | Time :     0.003 s
  Finished back-transformation of eigenvectors
  | Time :     0.000 s

  Obtaining occupation numbers and chemical potential using ELSI.
  | Chemical potential (Fermi level):    -2.51699154eV
  Highest occupied state (VBM) at     -5.43193905 eV
  | Occupation number:      2.00000000

  Lowest unoccupied state (CBM) at    -1.24166255 eV
  | Occupation number:      0.00000000

  Overall HOMO-LUMO gap:      4.19027650 eV.

  Total energy components:
  | Sum of eigenvalues            :        -180.14594561 Ha       -4902.02059208 eV
  | XC energy correction          :         -42.66614968 Ha       -1161.00500419 eV
  | XC potential correction       :          54.85417522 Ha        1492.65805340 eV
  | Free-atom electrostatic energy:        -146.86304154 Ha       -3996.34669212 eV
  | Hartree energy correction     :          -8.66174075 Ha        -235.69795808 eV
  | vdW energy correction         :           0.00000000 Ha           0.00000000 eV
  | Entropy correction            :           0.00000000 Ha           0.00000000 eV
  | ---------------------------
  | Total energy                  :        -323.48270236 Ha       -8802.41219307 eV
  | Total energy, T -> 0          :        -323.48270236 Ha       -8802.41219307 eV  <-- do not rely on this value for anything but (periodic) metals
  | Electronic free energy        :        -323.48270236 Ha       -8802.41219307 eV

  Derived energy quantities:
  | Kinetic energy                :         322.80704892 Ha        8784.02672738 eV
  | Electrostatic energy          :        -603.62360159 Ha      -16425.43391626 eV
  | Energy correction for multipole
  | error in Hartree potential    :           0.04266317 Ha           1.16092394 eV
  | Sum of eigenvalues per atom                           :        -377.07850708 eV
  | Total energy (T->0) per atom                          :        -677.10863024 eV  <-- do not rely on this value for anything but (periodic) metals
  | Electronic free energy per atom                       :        -677.10863024 eV

  Self-consistency convergence accuracy:
  | Change of charge density      :  0.6128E-01
  | Change of sum of eigenvalues  :  0.4518E+01 eV
  | Change of total energy        :  0.2332E-01 eV

  End self-consistency iteration #     4       :  max(cpu_time)    wall_clock(cpu1)
  | Time for this iteration                    :        0.093 s           0.081 s
  | Charge density update                      :        0.038 s           0.026 s
  | Density mixing                             :        0.001 s           0.001 s
  | Hartree multipole update                   :        0.001 s           0.001 s
  | Hartree multipole summation                :        0.022 s           0.022 s
  | Integration                                :        0.027 s           0.027 s
  | Solution of K.-S. eqns.                    :        0.004 s           0.004 s
  | Total energy evaluation                    :        0.000 s           0.000 s

  Partial memory accounting:
  | Current value for overall tracked memory usage on task 0  :           0.134 MB
  | Peak value for overall tracked memory usage on task 0     :           0.866 MB after allocating gradient_basis_wave
  | Largest tracked array allocation on task 0 so far         :           0.549 MB  when allocating gradient_basis_wave
  Note:  These values currently only include a subset of arrays which are explicitly tracked.
  The "true" memory usage will be greater.
------------------------------------------------------------

------------------------------------------------------------
          Begin self-consistency iteration #    5

  Date     :  20200702, Time     :  111912.669
------------------------------------------------------------
  Evaluating new KS density.
  Integration grid: deviation in total charge (<rho> - N_e) =   0.000000E+00
  Pulay mixing of updated and previous charge densities.

  Evaluating partitioned Hartree potential by multipole expansion.
  | Analytical far-field extrapolation by fixed multipoles:
  | Hartree multipole sum: apparent total charge =  -0.437805E-03
  Summing up the Hartree potential.
  Time summed over all CPUs for potential: real work        0.419 s, elapsed        0.428 s
  | RMS charge density error from multipole expansion :   0.249070E-01

  Integrating Hamiltonian matrix: batch-based integration.
  Time summed over all CPUs for integration: real work        0.509 s, elapsed        0.540 s

  Updating Kohn-Sham eigenvalues and eigenvectors using ELSI and the ELPA eigensolver.
  ELPA settings:
  | ELPA solver          1
  Finished transformation to standard eigenproblem
  | Time :     0.000 s
  Starting ELPA eigensolver
  | Time full => tridiagonal    :     0.002 s
  | Time solve tridiagonal      :     0.000 s
  | Time ev tridiagonal => full :     0.000 s
  Finished solving standard eigenproblem
  | Time :     0.002 s
  Finished back-transformation of eigenvectors
  | Time :     0.000 s

  Obtaining occupation numbers and chemical potential using ELSI.
  | Chemical potential (Fermi level):    -2.59452589eV
  Highest occupied state (VBM) at     -5.53177468 eV
  | Occupation number:      2.00000000

  Lowest unoccupied state (CBM) at    -1.33760320 eV
  | Occupation number:      0.00000000

  Overall HOMO-LUMO gap:      4.19417148 eV.

  Total energy components:
  | Sum of eigenvalues            :        -180.36997068 Ha       -4908.11662441 eV
  | XC energy correction          :         -42.63953391 Ha       -1160.28075202 eV
  | XC potential correction       :          54.81962904 Ha        1491.71800388 eV
  | Free-atom electrostatic energy:        -146.86304154 Ha       -3996.34669212 eV
  | Hartree energy correction     :          -8.42948217 Ha        -229.37788055 eV
  | vdW energy correction         :           0.00000000 Ha           0.00000000 eV
  | Entropy correction            :           0.00000000 Ha           0.00000000 eV
  | ---------------------------
  | Total energy                  :        -323.48239926 Ha       -8802.40394521 eV
  | Total energy, T -> 0          :        -323.48239926 Ha       -8802.40394521 eV  <-- do not rely on this value for anything but (periodic) metals
  | Electronic free energy        :        -323.48239926 Ha       -8802.40394521 eV

  Derived energy quantities:
  | Kinetic energy                :         322.67832699 Ha        8780.52402563 eV
  | Electrostatic energy          :        -603.52119235 Ha      -16422.64721882 eV
  | Energy correction for multipole
  | error in Hartree potential    :           0.04199909 Ha           1.14285328 eV
  | Sum of eigenvalues per atom                           :        -377.54743265 eV
  | Total energy (T->0) per atom                          :        -677.10799579 eV  <-- do not rely on this value for anything but (periodic) metals
  | Electronic free energy per atom                       :        -677.10799579 eV

  Self-consistency convergence accuracy:
  | Change of charge density      :  0.2019E-01
  | Change of sum of eigenvalues  : -0.6096E+01 eV
  | Change of total energy        :  0.8248E-02 eV

  End self-consistency iteration #     5       :  max(cpu_time)    wall_clock(cpu1)
  | Time for this iteration                    :        0.084 s           0.080 s
  | Charge density update                      :        0.029 s           0.025 s
  | Density mixing                             :        0.001 s           0.001 s
  | Hartree multipole update                   :        0.001 s           0.001 s
  | Hartree multipole summation                :        0.022 s           0.022 s
  | Integration                                :        0.027 s           0.027 s
  | Solution of K.-S. eqns.                    :        0.004 s           0.004 s
  | Total energy evaluation                    :        0.000 s           0.000 s

  Partial memory accounting:
  | Current value for overall tracked memory usage on task 0  :           0.134 MB
  | Peak value for overall tracked memory usage on task 0     :           0.866 MB after allocating gradient_basis_wave
  | Largest tracked array allocation on task 0 so far         :           0.549 MB  when allocating gradient_basis_wave
  Note:  These values currently only include a subset of arrays which are explicitly tracked.
  The "true" memory usage will be greater.
------------------------------------------------------------

------------------------------------------------------------
          Begin self-consistency iteration #    6

  Date     :  20200702, Time     :  111912.758
------------------------------------------------------------
  Evaluating new KS density.
  Integration grid: deviation in total charge (<rho> - N_e) =   2.842171E-14
  Pulay mixing of updated and previous charge densities.

[...]
  |   Hirshfeld dipole moment :      0.06396524
  |   Hirshfeld second moments:      0.00071048      -0.02784327      -0.02003153
  |                                 -0.02784327      -0.01561415       0.01215848
  |                                 -0.02003153       0.01215848      -0.01916321
  ----------------------------------------------------------------------
  | Atom    12: O
  |   Hirshfeld charge        :     -0.16124204
  |   Free atom volume        :     23.61338643
  |   Hirshfeld volume        :     21.13281352
  |   Hirshfeld dipole vector :      0.03256886       0.00208082       0.03268711
  |   Hirshfeld dipole moment :      0.04618991
  |   Hirshfeld second moments:      0.04808152      -0.01808544      -0.01348004
  |                                 -0.01808544       0.09573568       0.02173876
  |                                 -0.01348004       0.02173876       0.00991250
  ----------------------------------------------------------------------
  | Atom    13: H
  |   Hirshfeld charge        :      0.18037869
  |   Free atom volume        :      9.95071624
  |   Hirshfeld volume        :      6.19250920
  |   Hirshfeld dipole vector :      0.06979284      -0.10593144      -0.00905110
  |   Hirshfeld dipole moment :      0.12717874
  |   Hirshfeld second moments:      0.11805833       0.00273209      -0.00875477
  |                                  0.00273209       0.12547653       0.00426072
  |                                 -0.00875477       0.00426072       0.09797680
  ----------------------------------------------------------------------


  Total energy components:
  | Sum of eigenvalues            :        -180.34305331 Ha       -4907.38416553 eV
  | XC energy correction          :         -42.63794955 Ha       -1160.23763942 eV
  | XC potential correction       :          54.81765222 Ha        1491.66421192 eV
  | Free-atom electrostatic energy:        -146.86304154 Ha       -3996.34669212 eV
  | Hartree energy correction     :          -8.45594575 Ha        -230.09799102 eV
  | vdW energy correction         :          -0.00327399 Ha          -0.08908971 eV
  | Entropy correction            :           0.00000000 Ha           0.00000000 eV
  | ---------------------------
  | Total energy                  :        -323.48561191 Ha       -8802.49136588 eV
  | Total energy, T -> 0          :        -323.48561191 Ha       -8802.49136588 eV  <-- do not rely on this value for anything but (periodic) metals
  | Electronic free energy        :        -323.48561191 Ha       -8802.49136588 eV

  Derived energy quantities:
  | Kinetic energy                :         322.57398570 Ha        8777.68475466 eV
  | Electrostatic energy          :        -603.41837408 Ha      -16419.84939141 eV
  | Energy correction for multipole
  | error in Hartree potential    :           0.04249567 Ha           1.15636606 eV
  | Sum of eigenvalues per atom                           :        -377.49108966 eV
  | Total energy (T->0) per atom                          :        -677.11472045 eV  <-- do not rely on this value for anything but (periodic) metals
  | Electronic free energy per atom                       :        -677.11472045 eV

  atomic forces [eV/Ang]:
  -----------------------
  atom #    1
   Hellmann-Feynman              :  0.160021E+00  0.336042E+00  0.767246E+00
   Ionic forces                  :  0.000000E+00  0.000000E+00  0.000000E+00
   Multipole                     :  0.182945E+00  0.464343E+00 -0.275369E+00
   Pulay + GGA                   : -0.103480E+01 -0.282758E+00 -0.109922E+01
   Van der Waals                 :  0.266144E-02  0.614173E-02 -0.167778E-02
   ----------------------------------------------------------------
   Total forces(   1)            : -0.689174E+00  0.523768E+00 -0.609020E+00
  atom #    2
   Hellmann-Feynman              :  0.316238E+00 -0.892396E-01  0.213837E+00
   Ionic forces                  :  0.000000E+00  0.000000E+00  0.000000E+00
   Multipole                     :  0.171731E+00  0.483441E-01 -0.390469E-02
   Pulay + GGA                   : -0.122125E+00  0.256168E-01  0.375546E-01
   Van der Waals                 :  0.619895E-02 -0.578557E-02 -0.486700E-02
   ----------------------------------------------------------------
   Total forces(   2)            :  0.372043E+00 -0.210643E-01  0.242619E+00
  atom #    3
   Hellmann-Feynman              : -0.770446E+01 -0.854744E+01 -0.363199E+00
   Ionic forces                  :  0.000000E+00  0.000000E+00  0.000000E+00
   Multipole                     : -0.131055E+00  0.108250E+00 -0.855516E+00
   Pulay + GGA                   :  0.794555E+01  0.834082E+01  0.193643E+01
   Van der Waals                 :  0.341103E-02 -0.914968E-02 -0.632037E-02
   ----------------------------------------------------------------
   Total forces(   3)            :  0.113445E+00 -0.107513E+00  0.711396E+00
  atom #    4
   Hellmann-Feynman              :  0.197761E+00  0.113540E+00 -0.177525E+00
   Ionic forces                  :  0.000000E+00  0.000000E+00  0.000000E+00
   Multipole                     : -0.368765E-01  0.708937E-01 -0.875171E-01
   Pulay + GGA                   :  0.165323E-01 -0.230851E+00  0.426585E-01
   Van der Waals                 : -0.102874E-02 -0.756603E-02 -0.563610E-02
   ----------------------------------------------------------------
   Total forces(   4)            :  0.176388E+00 -0.539841E-01 -0.228020E+00
  atom #    5
   Hellmann-Feynman              :  0.352144E-01  0.195442E+00 -0.252020E+00
   Ionic forces                  :  0.000000E+00  0.000000E+00  0.000000E+00
   Multipole                     :  0.371602E-01  0.724930E-02 -0.113742E+00
   Pulay + GGA                   : -0.199283E+00 -0.436557E-01  0.122064E+00
   Van der Waals                 : -0.373619E-02  0.349469E-03  0.546028E-02
   ----------------------------------------------------------------
   Total forces(   5)            : -0.130645E+00  0.159385E+00 -0.238238E+00
  atom #    6
   Hellmann-Feynman              :  0.273672E-01 -0.448232E+00  0.237613E+00
   Ionic forces                  :  0.000000E+00  0.000000E+00  0.000000E+00
   Multipole                     : -0.245222E-01  0.601347E+00  0.266914E+00
   Pulay + GGA                   :  0.256655E+00 -0.557755E+00 -0.346445E+00
   Van der Waals                 : -0.175510E-02  0.544775E-02 -0.328314E-02
   ----------------------------------------------------------------
   Total forces(   6)            :  0.257745E+00 -0.399193E+00  0.154798E+00
  atom #    7
   Hellmann-Feynman              : -0.234280E+00 -0.600764E-01 -0.411612E-01
   Ionic forces                  :  0.000000E+00  0.000000E+00  0.000000E+00
   Multipole                     : -0.121635E+00  0.489223E-01  0.277718E-01
   Pulay + GGA                   :  0.112963E+00 -0.655408E-02  0.128079E-01
   Van der Waals                 : -0.335126E-02  0.375901E-02  0.960955E-02
   ----------------------------------------------------------------
   Total forces(   7)            : -0.246303E+00 -0.139492E-01  0.902800E-02
  atom #    8
   Hellmann-Feynman              :  0.166197E-01 -0.143213E-01  0.184005E+00
   Ionic forces                  :  0.000000E+00  0.000000E+00  0.000000E+00
   Multipole                     :  0.182907E-01  0.630933E-01  0.115622E+00
   Pulay + GGA                   : -0.496117E-01 -0.465859E-01 -0.113774E+00
   Van der Waals                 : -0.277896E-02  0.116085E-01  0.744820E-03
   ----------------------------------------------------------------
   Total forces(   8)            : -0.174802E-01  0.137945E-01  0.186597E+00
  atom #    9
   Hellmann-Feynman              :  0.128581E+00  0.732188E-01 -0.160170E+00
   Ionic forces                  :  0.000000E+00  0.000000E+00  0.000000E+00
   Multipole                     :  0.167339E-01  0.126390E+00 -0.115278E-01
   Pulay + GGA                   : -0.285740E-01 -0.807149E-01  0.599275E-01
   Van der Waals                 : -0.266322E-03  0.585796E-02  0.701543E-02
   ----------------------------------------------------------------
   Total forces(   9)            :  0.116475E+00  0.124752E+00 -0.104755E+00
  atom #   10
   Hellmann-Feynman              :  0.252891E+01  0.526029E+01  0.106772E+01
   Ionic forces                  :  0.000000E+00  0.000000E+00  0.000000E+00
   Multipole                     : -0.272904E-01 -0.164426E+00  0.322557E+00
   Pulay + GGA                   : -0.190698E+01 -0.272760E+01 -0.507667E-01
   Van der Waals                 :  0.175475E-02 -0.112190E-01 -0.154367E-02
   ----------------------------------------------------------------
   Total forces(  10)            :  0.596401E+00  0.235704E+01  0.133797E+01
  atom #   11
   Hellmann-Feynman              :  0.412941E+01 -0.209722E+01  0.140782E+02
   Ionic forces                  :  0.000000E+00  0.000000E+00  0.000000E+00
   Multipole                     :  0.807473E-01 -0.725130E+00  0.762215E+00
   Pulay + GGA                   : -0.294025E+01  0.338378E+01 -0.135137E+02
   Van der Waals                 : -0.305468E-02 -0.115720E-01  0.313525E-02
   ----------------------------------------------------------------
   Total forces(  11)            :  0.126686E+01  0.549860E+00  0.132985E+01
  atom #   12
   Hellmann-Feynman              : -0.122895E+02  0.580622E+00 -0.107818E+02
   Ionic forces                  :  0.000000E+00  0.000000E+00  0.000000E+00
   Multipole                     : -0.100398E+01 -0.989095E+00 -0.443094E+00
   Pulay + GGA                   :  0.123111E+02 -0.167828E+01  0.831479E+01
   Van der Waals                 :  0.204493E-02  0.104487E-01  0.530775E-03
   ----------------------------------------------------------------
   Total forces(  12)            : -0.980356E+00 -0.207631E+01 -0.290961E+01
  atom #   13
   Hellmann-Feynman              : -0.633417E+00 -0.131796E+01  0.164561E+00
   Ionic forces                  :  0.000000E+00  0.000000E+00  0.000000E+00
   Multipole                     :  0.466362E-01 -0.646625E-01 -0.139202E-01
   Pulay + GGA                   : -0.246325E+00  0.320084E+00 -0.334170E-01
   Van der Waals                 : -0.998529E-04  0.167912E-02 -0.316804E-02
   ----------------------------------------------------------------
   Total forces(  13)            : -0.833206E+00 -0.106086E+01  0.114055E+00

  Timings for VdW correction (Tkatchenko-Scheffler 2009 or later):
  | CPU time:        0.016 s, Wall clock time:        0.010 s.
  Removing unitary transformations (pure translations, rotations) from forces on atoms.
  Atomic forces before filtering:
  | Net force on center of mass :   0.219038E-02 -0.426508E-02 -0.332770E-02 eV/A
  | Net torque on center of mass:  -0.689908E-02  0.275646E-02  0.489650E-02 eV
  Atomic forces after filtering:
  | Net force on center of mass :   0.535218E-15  0.178406E-15 -0.223008E-16 eV/A
  | Net torque on center of mass:  -0.106210E-14 -0.445490E-15 -0.188817E-14 eV

  Energy and forces in a compact form:
  | Total energy uncorrected      :         -0.880249136587619E+04 eV
  | Total energy corrected        :         -0.880249136587619E+04 eV  <-- do not rely on this value for anything but (periodic) metals
  | Electronic free energy        :         -0.880249136587619E+04 eV
  Total atomic forces (unitary forces cleaned) [eV/Ang]:
  |   1         -0.689318114809801E+00          0.524060832544708E+00         -0.608709817444542E+00
  |   2          0.371899209509517E+00         -0.209341138390447E-01          0.243056535372566E+00
  |   3          0.113464954404764E+00         -0.106928330239729E+00          0.711650571525369E+00
  |   4          0.176564097803142E+00         -0.533023873072560E-01         -0.227677050745719E+00
  |   5         -0.130572676394893E+00          0.159947975483402E+00         -0.237912135874383E+00
  |   6          0.257703713369439E+00         -0.398941141991739E+00          0.155248508504621E+00
  |   7         -0.246342416530609E+00         -0.135377974328740E-01          0.935538800645974E-02
  |   8         -0.176396040604000E-01          0.138309409996522E-01          0.187091356580776E+00
  |   9          0.116625786588655E+00          0.125029145727532E+00         -0.104122196321998E+00
  |  10          0.595979710392268E+00          0.235727821442436E+01          0.133803319407129E+01
  |  11          0.126626192373055E+01          0.549872118738489E+00          0.132990674751330E+01
  |  12         -0.980825066652845E+00         -0.207586113882812E+01         -0.290976825057466E+01
  |  13         -0.833801517349789E+00         -0.106051431827937E+01          0.113847149386915E+00

  ------------------------------------ 
  Start decomposition of the XC Energy 
  ------------------------------------ 
  X and C from original XC functional choice 
  Hartree-Fock Energy :          0.000000000 Ha              0.000000000 eV
  X Energy            :        -41.037659275 Ha          -1116.691525519 eV
  C Energy            :         -1.600290272 Ha            -43.546113899 eV
  Total XC Energy     :        -42.637949547 Ha          -1160.237639418 eV
  ------------------------------------ 
  LDA X and C from self-consistent density 
  X Energy LDA        :        -37.255738740 Ha          -1013.780231673 eV
  C Energy LDA        :         -3.138536858 Ha            -85.403933201 eV
  ------------------------------------ 
  End decomposition of the XC Energy 
  ------------------------------------ 

------------------------------------------------------------

------------------------------------------------------------------------------
  Final output of selected total energy values:

  The following output summarizes some interesting total energy values
  at the end of a run (AFTER all relaxation, molecular dynamics, etc.).

  | Total energy of the DFT / Hartree-Fock s.c.f. calculation      :          -8802.491365876 eV
  | Final zero-broadening corrected energy (caution - metals only) :          -8802.491365876 eV
  | For reference only, the value of 1 Hartree used in FHI-aims is :             27.211384500 eV

  Before relying on these values, please be sure to understand exactly which
  total energy value is referred to by a given number. Different objects may
  all carry the same name 'total energy'. Definitions:

  Total energy of the DFT / Hartree-Fock s.c.f. calculation:
  | Note that this energy does not include ANY quantities calculated after the
  | s.c.f. cycle, in particular not ANY RPA, MP2, etc. many-body perturbation terms.

  Final zero-broadening corrected energy:
  | For metallic systems only, a broadening of the occupation numbers at the Fermi
  | level can be extrapolated back to zero broadening by an electron-gas inspired
  | formula. For all systems that are not real metals, this value can be
  | meaningless and should be avoided.

------------------------------------------------------------------------------
  Methods described in the following list of references were used in this FHI-aims run.
  If you publish the results, please make sure to cite these reference if they apply.
  FHI-aims is an academic code, and for our developers (often, Ph.D. students
  and postdocs), scientific credit in the community is essential.
  Thank you for helping us!

  For any use of FHI-aims, please cite:

    Volker Blum, Ralf Gehrke, Felix Hanke, Paula Havu, Ville Havu,
    Xinguo Ren, Karsten Reuter, and Matthias Scheffler
    'Ab initio molecular simulations with numeric atom-centered orbitals'
    Computer Physics Communications 180, 2175-2196 (2009)
    http://dx.doi.org/10.1016/j.cpc.2009.06.022


  The scalable eigensolver library ELPA was used in your run.
  ELPA is essential especially for large systems on hundreds or thousands of CPUs.
  For ELPA, please cite:

    Andreas Marek, Volker Blum, Rainer Johanni, Ville Havu, Bruno Lang,
    Thomas Auckenthaler, Alexander Heinecke, Hans-Joachim Bungartz, and Hermann Lederer,
    'The ELPA Library - Scalable Parallel Eigenvalue Solutions
    for Electronic Structure Theory and Computational Science'
    The Journal of Physics: Condensed Matter 26, 213201 (2014).
    http://dx.doi.org/10.1088/0953-8984/26/21/213201


  The ELSI infrastructure was used in your run to solve the Kohn-Sham electronic structure.
  Please check out http://elsi-interchange.org to learn more.
  If scalability is important for your project, please acknowledge ELSI by citing:

    V. W-z. Yu, F. Corsetti, A. Garcia, W. P. Huhn, M. Jacquelin, W. Jia,
    B. Lange, L. Lin, J. Lu, W. Mi, A. Seifitokaldani, A. Vazquez-Mayagoitia,
    C. Yang, H. Yang, and V. Blum
    'ELSI: A unified software interface for Kohn-Sham electronic structure solvers'
    Computer Physics Communications 222, 267-285 (2018).
    http://dx.doi.org/10.1016/j.cpc.2017.09.007


  For the real-space grid partitioning and parallelization used in this calculation, please cite:

    Ville Havu, Volker Blum, Paula Havu, and Matthias Scheffler,
    'Efficient O(N) integration for all-electron electronic structure calculation'
    'using numerically tabulated basis functions'
    Journal of Computational Physics 228, 8367-8379 (2009).
    http://dx.doi.org/10.1016/j.jcp.2009.08.008

  Of course, there are many other important community references, e.g., those cited in the
  above references. Our list is limited to references that describe implementations in the
  FHI-aims code. The reason is purely practical (length of this list) - please credit others as well.

------------------------------------------------------------
          Leaving FHI-aims.
          Date     :  20200702, Time     :  111913.839

          Computational steps:
          | Number of self-consistency cycles          :           15
          | Number of SCF (re)initializations          :            1

          Detailed time accounting                     :  max(cpu_time)    wall_clock(cpu1)
          | Total time                                 :        1.755 s           1.848 s
          | Preparation time                           :        0.166 s           0.168 s
          | Boundary condition initalization           :        0.000 s           0.000 s
          | Grid partitioning                          :        0.022 s           0.022 s
          | Preloading free-atom quantities on grid    :        0.002 s           0.002 s
          | Free-atom superposition energy             :        0.005 s           0.005 s
          | Total time for integrations                :        0.450 s           0.450 s
          | Total time for solution of K.-S. equations :        0.063 s           0.063 s
          | Total time for density & force components  :        0.551 s           0.449 s
          | Total time for mixing                      :        0.017 s           0.017 s
          | Total time for Hartree multipole update    :        0.018 s           0.017 s
          | Total time for Hartree multipole sum       :        0.406 s           0.408 s
          | Total time for total energy evaluation     :        0.002 s           0.005 s
          | Total time for vdW correction              :        0.016 s           0.010 s

          Partial memory accounting:
          | Residual value for overall tracked memory usage across tasks :           0.000 MB (should be 0.000 MB)
          | Peak values for overall tracked memory usage (after allocating hessian_basis_wave):
          |   Minimum:        2.119 MB (on task 20)
          |   Maximum:        2.159 MB (on task  9)
          |   Average:        2.139 MB
          | Largest tracked array allocation (hessian_basis_wave):
          |   Minimum:        1.090 MB (on task  2)
          |   Maximum:        1.108 MB (on task  9)
          |   Average:        1.097 MB
          Note:  These values currently only include a subset of arrays which are explicitly tracked.
          The "true" memory usage will be greater.

          Have a nice day.
------------------------------------------------------------
