  MPI-parallelism will be employed.
------------------------------------------------------------
          Invoking FHI-aims ...
          Version 171221_1
          Compiled on 2019/09/09 at 14:39:39 on host puhti-login2.bullx.

          When using FHI-aims, please cite the following reference:

          Volker Blum, Ralf Gehrke, Felix Hanke, Paula Havu,
          Ville Havu, Xinguo Ren, Karsten Reuter, and Matthias Scheffler,
          'Ab Initio Molecular Simulations with Numeric Atom-Centered Orbitals',
          Computer Physics Communications 180, 2175-2196 (2009)

          For any questions about FHI-aims, please visit the aimsclub website
          with its forums and wiki. Contributions to both the forums and the
          wiki are warmly encouraged - they are for you, and everyone is welcome there.

------------------------------------------------------------



  Date     :  20200805, Time     :  185502.631
  Time zero on CPU 1             :   0.113290000000000E-01  s.
  Internal wall clock time zero  :           365885702.631  s.

  FHI-aims created a unique identifier for this run for later identification
  aims_uuid : ACB62FFC-EBF8-49B4-AD01-E72C1C6F291D

  Using        1 parallel tasks.
  Task        0 on host r18c43.bullx reporting.

  Performing system and environment tests:
  | Environment variable OMP_NUM_THREADS correctly set to 1.
  | Stacksize not measured: no C compiler
  | Checking for scalapack...
  | Testing pdtran()...
  | All pdtran() tests passed.

  Obtaining array dimensions for all initial allocations:
  
  -----------------------------------------------------------------------
  Parsing control.in (first pass over file, find array dimensions only).
  The contents of control.in will be repeated verbatim below
  unless switched off by setting 'verbatim_writeout .false.' .
  in the first line of control.in .
  -----------------------------------------------------------------------
  
  #########################################################################################
  #
  #  Volker Blum, FHI 2009 : Test run input file control.in for simple H2O
  #
  #########################################################################################
  #
  #  Physical model
  #
    xc                 pbe
    vdw_correction_hirshfeld
    spin               none
    relativistic       none
    charge             0.
  #
  #  SCF convergence
  #
    occupation_type    gaussian 0.01
    mixer              pulay
      n_max_pulay        10
      charge_mix_param   0.2
    sc_accuracy_rho    1E-5
    sc_accuracy_eev    1E-3
    sc_accuracy_etot   1E-6
    sc_accuracy_forces 1E-4
    sc_iter_limit      100
  #
  #  Relaxation
  #
  #  relax_geometry   bfgs 1.e-3
  #
  ################################################################################
  #
  #  FHI-aims code project
  #  VB, Fritz-Haber Institut, 2009
  #
  #  Suggested "light" defaults for H atom (to be pasted into control.in file)
  #  Be sure to double-check any results obtained with these settings for post-processing,
  #  e.g., with the "tight" defaults and larger basis sets.
  #
  ################################################################################
    species        H
  #     global species definitions
      nucleus             1
      mass                1.00794
  #
      l_hartree           4
  #
      cut_pot             3.5  1.5  1.0
      basis_dep_cutoff    1e-4
  #
      radial_base         24 5.0
      radial_multiplier   1
      angular_grids       specified
        division   0.2421   50
        division   0.3822  110
        division   0.4799  194
        division   0.5341  302
  #      division   0.5626  434
  #      division   0.5922  590
  #      division   0.6542  770
  #      division   0.6868 1202
  #      outer_grid  770
        outer_grid  302
  ################################################################################
  #
  #  Definition of "minimal" basis
  #
  ################################################################################
  #     valence basis states
      valence      1  s   1.
  #     ion occupancy
      ion_occ      1  s   0.5
  ################################################################################
  #
  #  Suggested additional basis functions. For production calculations,
  #  uncomment them one after another (the most important basis functions are
  #  listed first).
  #
  #  Basis constructed for dimers: 0.5 A, 0.7 A, 1.0 A, 1.5 A, 2.5 A
  #
  ################################################################################
  #  "First tier" - improvements: -1014.90 meV to -62.69 meV
       hydro 2 s 2.1
       hydro 2 p 3.5
  #  "Second tier" - improvements: -12.89 meV to -1.83 meV
  #     hydro 1 s 0.85
  #     hydro 2 p 3.7
  #     hydro 2 s 1.2
  #     hydro 3 d 7
  #  "Third tier" - improvements: -0.25 meV to -0.12 meV
  #     hydro 4 f 11.2
  #     hydro 3 p 4.8
  #     hydro 4 d 9
  #     hydro 3 s 3.2
  ################################################################################
  #
  #  FHI-aims code project
  #  VB, Fritz-Haber Institut, 2009
  #
  #  Suggested "light" defaults for C atom (to be pasted into control.in file)
  #  Be sure to double-check any results obtained with these settings for post-processing,
  #  e.g., with the "tight" defaults and larger basis sets.
  #
  ################################################################################
    species        C
  #     global species definitions
      nucleus             6
      mass                12.0107
  #
      l_hartree           4
  #
      cut_pot             3.5  1.5  1.0
      basis_dep_cutoff    1e-4
  #
      radial_base         34 5.0
      radial_multiplier   1
      angular_grids specified
        division   0.3326   50
        division   0.5710  110
        division   0.7727  194
        division   0.8772  302
  #      division   0.9334  434
  #      division   0.9625  590
  #      division   0.9924  770
  #      division   1.0230  974
  #      division   1.4589 1202
  #     outer_grid  974
       outer_grid 302
  ################################################################################
  #
  #  Definition of "minimal" basis
  #
  ################################################################################
  #     valence basis states
      valence      2  s   2.
      valence      2  p   2.
  #     ion occupancy
      ion_occ      2  s   1.
      ion_occ      2  p   1.
  ################################################################################
  #
  #  Suggested additional basis functions. For production calculations,
  #  uncomment them one after another (the most important basis functions are
  #  listed first).
  #
  #  Constructed for dimers: 1.0 A, 1.25 A, 1.5 A, 2.0 A, 3.0 A
  #
  ################################################################################
  #  "First tier" - improvements: -1214.57 meV to -155.61 meV
       hydro 2 p 1.7
       hydro 3 d 6
       hydro 2 s 4.9
  #  "Second tier" - improvements: -67.75 meV to -5.23 meV
  #     hydro 4 f 9.8
  #     hydro 3 p 5.2
  #     hydro 3 s 4.3
  #     hydro 5 g 14.4
  #     hydro 3 d 6.2
  #  "Third tier" - improvements: -2.43 meV to -0.60 meV
  #     hydro 2 p 5.6
  #     hydro 2 s 1.4
  #     hydro 3 d 4.9
  #     hydro 4 f 11.2
  #  "Fourth tier" - improvements: -0.39 meV to -0.18 meV
  #     hydro 2 p 2.1
  #     hydro 5 g 16.4
  #     hydro 4 d 13.2
  #     hydro 3 s 13.6
  #     hydro 4 f 17.6
  #  Further basis functions - improvements: -0.08 meV and below
  #     hydro 3 s 2
  #     hydro 3 p 6
  #     hydro 4 d 20
  ################################################################################
  #
  #  FHI-aims code project
  #  VB, Fritz-Haber Institut, 2009
  #
  #  Suggested "light" defaults for N atom (to be pasted into control.in file)
  #  Be sure to double-check any results obtained with these settings for post-processing,
  #  e.g., with the "tight" defaults and larger basis sets.
  #
  ################################################################################
    species        N
  #     global species definitions
      nucleus             7
      mass                14.0067
  #
      l_hartree           4
  #
      cut_pot             3.5  1.5  1.0
      basis_dep_cutoff    1e-4
  #
      radial_base         35 5.0
      radial_multiplier   1
      angular_grids       specified
        division   0.2599   50
        division   0.4601  110
        division   0.5885  194
        division   0.6503  302
  #      division   0.6939  434
  #      division   0.7396  590
  #      division   0.7632  770
  #      division   0.8122  974
  #      division   1.1604 1202
  #      outer_grid  974
        outer_grid  302
  ################################################################################
  #
  #  Definition of "minimal" basis
  #
  ################################################################################
  #     valence basis states
      valence      2  s   2.
      valence      2  p   3.
  #     ion occupancy
      ion_occ      2  s   1.
      ion_occ      2  p   2.
  ################################################################################
  #
  #  Suggested additional basis functions. For production calculations,
  #  uncomment them one after another (the most important basis functions are
  #  listed first).
  #
  #  Constructed for dimers: 1.0 A, 1.1 A, 1.5 A, 2.0 A, 3.0 A
  #
  ################################################################################
  #  "First tier" - improvements: -1193.42 meV to -220.60 meV
       hydro 2 p 1.8
       hydro 3 d 6.8
       hydro 3 s 5.8
  #  "Second tier" - improvements: -80.21 meV to -6.86 meV
  #     hydro 4 f 10.8
  #     hydro 3 p 5.8
  #     hydro 1 s 0.8
  #     hydro 5 g 16
  #     hydro 3 d 4.9
  #  "Third tier" - improvements: -4.29 meV to -0.53 meV
  #     hydro 3 s 16
  #     ionic 2 p auto
  #     hydro 3 d 6.6
  #     hydro 4 f 11.6
  #  "Fourth tier" - improvements: -0.75 meV to -0.25 meV
  #     hydro 2 p 4.5
  #     hydro 2 s 2.4
  #     hydro 5 g 14.4
  #     hydro 4 d 14.4
  #     hydro 4 f 16.8
  # Further basis functions - -0.21 meV and below
  #     hydro 3 p 14.8
  #     hydro 3 s 4.4
  #     hydro 3 d 19.6
  #     hydro 5 g 12.8
  ################################################################################
  #
  #  FHI-aims code project
  #  VB, Fritz-Haber Institut, 2009
  #
  #  Suggested "light" defaults for O atom (to be pasted into control.in file)
  #  Be sure to double-check any results obtained with these settings for post-processing,
  #  e.g., with the "tight" defaults and larger basis sets.
  #
  ################################################################################
    species        O
  #     global species definitions
      nucleus             8
      mass                15.9994
  #
      l_hartree           4
  #
      cut_pot             3.5  1.5  1.0
      basis_dep_cutoff    1e-4
  #
      radial_base         36 5.0
      radial_multiplier   1
       angular_grids specified
        division   0.2659   50
        division   0.4451  110
        division   0.6052  194
        division   0.7543  302
  #      division   0.8014  434
  #      division   0.8507  590
  #      division   0.8762  770
  #      division   0.9023  974
  #      division   1.2339 1202
  #      outer_grid 974
        outer_grid 302
  ################################################################################
  #
  #  Definition of "minimal" basis
  #
  ################################################################################
  #     valence basis states
      valence      2  s   2.
      valence      2  p   4.
  #     ion occupancy
      ion_occ      2  s   1.
      ion_occ      2  p   3.
  ################################################################################
  #
  #  Suggested additional basis functions. For production calculations,
  #  uncomment them one after another (the most important basis functions are
  #  listed first).
  #
  #  Constructed for dimers: 1.0 A, 1.208 A, 1.5 A, 2.0 A, 3.0 A
  #
  ################################################################################
  #  "First tier" - improvements: -699.05 meV to -159.38 meV
       hydro 2 p 1.8
       hydro 3 d 7.6
       hydro 3 s 6.4
  #  "Second tier" - improvements: -49.91 meV to -5.39 meV
  #     hydro 4 f 11.6
  #     hydro 3 p 6.2
  #     hydro 3 d 5.6
  #     hydro 5 g 17.6
  #     hydro 1 s 0.75
  #  "Third tier" - improvements: -2.83 meV to -0.50 meV
  #     ionic 2 p auto
  #     hydro 4 f 10.8
  #     hydro 4 d 4.7
  #     hydro 2 s 6.8
  #  "Fourth tier" - improvements: -0.40 meV to -0.12 meV
  #     hydro 3 p 5
  #     hydro 3 s 3.3
  #     hydro 5 g 15.6
  #     hydro 4 f 17.6
  #     hydro 4 d 14
  # Further basis functions - -0.08 meV and below
  #     hydro 3 s 2.1
  #     hydro 4 d 11.6
  #     hydro 3 p 16
  #     hydro 2 s 17.2
  
  -----------------------------------------------------------------------
  Completed first pass over input file control.in .
  -----------------------------------------------------------------------
  
  
  -----------------------------------------------------------------------
  Parsing geometry.in (first pass over file, find array dimensions only).
  The contents of geometry.in will be repeated verbatim below
  unless switched off by setting 'verbatim_writeout .false.' .
  in the first line of geometry.in .
  -----------------------------------------------------------------------
  
  atom  0.00000 0.00000 0.00000 C
  atom  1.09300 0.00000 0.00000 H
  atom  -0.47961 0.00000 -1.41207 N
  atom  -1.35581 -0.52136 -1.45991 H
  atom  -0.62662 0.96298 -1.70734 H
  atom  -0.49584 1.26211 0.72868 C
  atom  -1.58789 1.28919 0.74431 H
  atom  -0.13407 1.27425 1.75947 H
  atom  -0.13407 2.16087 0.22380 H
  atom  -0.39425 -1.28861 0.74398 C
  atom  -0.10189 -1.56493 1.88303 O
  atom  -1.10210 -2.13717 0.06896 O
  atom  -0.89374 -1.81649 -0.82476 H
  
  -----------------------------------------------------------------------
  Completed first pass over input file geometry.in .
  -----------------------------------------------------------------------
  

  Basic array size parameters:
  | Number of species                 :        4
  | Number of atoms                   :       13
  | Max. basis fn. angular momentum   :        2
  | Max. atomic/ionic basis occupied n:        2
  | Max. number of basis fn. types    :        2
  | Max. radial fns per species/type  :        3
  | Max. logarithmic grid size        :     1301
  | Max. radial integration grid size :       36
  | Max. angular integration grid size:      302
  | Max. angular grid division number :        8
  | Radial grid for Hartree potential :     1301
  | Number of spin channels           :        1

------------------------------------------------------------
          Reading file control.in.
------------------------------------------------------------
  XC: Using PBE gradient-corrected functionals.
  Spin treatment: No spin polarisation.
  Non-relativistic treatment of kinetic energy.
  Charge =   0.000000E+00: Neutral system requested explicitly.
  Occupation type: Gaussian broadening, width =   0.100000E-01 eV.
  Using pulay charge density mixing.
  Pulay mixing - number of memorized iterations:   10
  Charge density mixing - mixing parameter:     0.2000
  Convergence accuracy of self-consistent charge density:  0.1000E-04
  Convergence accuracy of sum of eigenvalues:  0.1000E-02
  Convergence accuracy of total energy:  0.1000E-05
  Convergence accuracy of forces:  0.1000E-03
  Maximum number of s.-c. iterations  :   100
 
  Reading configuration options for species H                   .
  | Found nuclear charge :   1.0000
  | Found atomic mass :    1.00794000000000      amu
  | Found l_max for Hartree potential  :   4
  | Found cutoff potl. onset [A], width [A], scale factor :    3.50000    1.50000    1.00000
  | Threshold for basis-dependent cutoff potential is   0.100000E-03
  | Found data for basic radial integration grid :    24 points, outermost radius =    5.000 A
  | Found multiplier for basic radial grid :   1
  | Found angular grid specification: user-specified.
  | Specified grid contains     5 separate shells.
  | Check grid settings after all constraints further below.
  | Found free-atom valence shell :  1 s   1.000
  | No ionic wave fns used. Skipping ion_occ.
  | Found hydrogenic basis function :  2 s   2.100
  | Found hydrogenic basis function :  2 p   3.500
  Species H                   : Missing cutoff potential type.
  Defaulting to exp(1/x)/(1-x)^2 type cutoff potential.
  Species H : No 'logarithmic' tag. Using default grid for free atom:
  | Default logarithmic grid data [bohr] : 0.1000E-03 0.1000E+03 0.1012E+01
  Species H : On-site basis accuracy parameter (for Gram-Schmidt orthonormalisation) not specified.
  Using default value basis_acc =  0.1000000E-03.
  Species H                   : Using default innermost maximum threshold i_radial=  2 for radial functions.
  Species H                   : Default cutoff onset for free atom density etc. : 0.35000000E+01 AA.
  Species H                   : Basic radial grid will be enhanced according to radial_multiplier =   1, to contain    24 grid points.
 
  Reading configuration options for species C                   .
  | Found nuclear charge :   6.0000
  | Found atomic mass :    12.0107000000000      amu
  | Found l_max for Hartree potential  :   4
  | Found cutoff potl. onset [A], width [A], scale factor :    3.50000    1.50000    1.00000
  | Threshold for basis-dependent cutoff potential is   0.100000E-03
  | Found data for basic radial integration grid :    34 points, outermost radius =    5.000 A
  | Found multiplier for basic radial grid :   1
  | Found angular grid specification: user-specified.
  | Specified grid contains     5 separate shells.
  | Check grid settings after all constraints further below.
  | Found free-atom valence shell :  2 s   2.000
  | Found free-atom valence shell :  2 p   2.000
  | No ionic wave fns used. Skipping ion_occ.
  | No ionic wave fns used. Skipping ion_occ.
  | Found hydrogenic basis function :  2 p   1.700
  | Found hydrogenic basis function :  3 d   6.000
  | Found hydrogenic basis function :  2 s   4.900
  Species C                   : Missing cutoff potential type.
  Defaulting to exp(1/x)/(1-x)^2 type cutoff potential.
  Species C : No 'logarithmic' tag. Using default grid for free atom:
  | Default logarithmic grid data [bohr] : 0.1000E-03 0.1000E+03 0.1012E+01
  Species C : On-site basis accuracy parameter (for Gram-Schmidt orthonormalisation) not specified.
  Using default value basis_acc =  0.1000000E-03.
  Species C                   : Using default innermost maximum threshold i_radial=  2 for radial functions.
  Species C                   : Default cutoff onset for free atom density etc. : 0.35000000E+01 AA.
  Species C                   : Basic radial grid will be enhanced according to radial_multiplier =   1, to contain    34 grid points.
 
  Reading configuration options for species N                   .
  | Found nuclear charge :   7.0000
  | Found atomic mass :    14.0067000000000      amu
  | Found l_max for Hartree potential  :   4
  | Found cutoff potl. onset [A], width [A], scale factor :    3.50000    1.50000    1.00000
  | Threshold for basis-dependent cutoff potential is   0.100000E-03
  | Found data for basic radial integration grid :    35 points, outermost radius =    5.000 A
  | Found multiplier for basic radial grid :   1
  | Found angular grid specification: user-specified.
  | Specified grid contains     5 separate shells.
  | Check grid settings after all constraints further below.
  | Found free-atom valence shell :  2 s   2.000
  | Found free-atom valence shell :  2 p   3.000
  | No ionic wave fns used. Skipping ion_occ.
  | No ionic wave fns used. Skipping ion_occ.
  | Found hydrogenic basis function :  2 p   1.800
  | Found hydrogenic basis function :  3 d   6.800
  | Found hydrogenic basis function :  3 s   5.800
  Species N                   : Missing cutoff potential type.
  Defaulting to exp(1/x)/(1-x)^2 type cutoff potential.
  Species N : No 'logarithmic' tag. Using default grid for free atom:
  | Default logarithmic grid data [bohr] : 0.1000E-03 0.1000E+03 0.1012E+01
  Species N : On-site basis accuracy parameter (for Gram-Schmidt orthonormalisation) not specified.
  Using default value basis_acc =  0.1000000E-03.
  Species N                   : Using default innermost maximum threshold i_radial=  2 for radial functions.
  Species N                   : Default cutoff onset for free atom density etc. : 0.35000000E+01 AA.
  Species N                   : Basic radial grid will be enhanced according to radial_multiplier =   1, to contain    35 grid points.
 
  Reading configuration options for species O                   .
  | Found nuclear charge :   8.0000
  | Found atomic mass :    15.9994000000000      amu
  | Found l_max for Hartree potential  :   4
  | Found cutoff potl. onset [A], width [A], scale factor :    3.50000    1.50000    1.00000
  | Threshold for basis-dependent cutoff potential is   0.100000E-03
  | Found data for basic radial integration grid :    36 points, outermost radius =    5.000 A
  | Found multiplier for basic radial grid :   1
  | Found angular grid specification: user-specified.
  | Specified grid contains     5 separate shells.
  | Check grid settings after all constraints further below.
  | Found free-atom valence shell :  2 s   2.000
  | Found free-atom valence shell :  2 p   4.000
  | No ionic wave fns used. Skipping ion_occ.
  | No ionic wave fns used. Skipping ion_occ.
  | Found hydrogenic basis function :  2 p   1.800
  | Found hydrogenic basis function :  3 d   7.600
  | Found hydrogenic basis function :  3 s   6.400
  Species O                   : Missing cutoff potential type.
  Defaulting to exp(1/x)/(1-x)^2 type cutoff potential.
  Species O : No 'logarithmic' tag. Using default grid for free atom:
  | Default logarithmic grid data [bohr] : 0.1000E-03 0.1000E+03 0.1012E+01
  Species O : On-site basis accuracy parameter (for Gram-Schmidt orthonormalisation) not specified.
  Using default value basis_acc =  0.1000000E-03.
  Species O                   : Using default innermost maximum threshold i_radial=  2 for radial functions.
  Species O                   : Default cutoff onset for free atom density etc. : 0.35000000E+01 AA.
  Species O                   : Basic radial grid will be enhanced according to radial_multiplier =   1, to contain    36 grid points.
 
  Finished reading input file 'control.in'. Consistency checks are next.
 
  MPI_IN_PLACE appears to work with this MPI implementation.
  | Keeping use_mpi_in_place .true. (see manual).
  Target number of points in a grid batch is not set. Defaulting to  100
  Method for grid partitioning is not set. Defaulting to parallel hash+maxmin partitioning.
  Batch size limit is not set. Defaulting to    200
  By default, will store active basis functions for each batch.
  If in need of memory, prune_basis_once .false. can be used to disable this option.
  communication_type for Hartree potential was not specified.
  Defaulting to calc_hartree .
  Pulay mixer: Number of initial linear mixing iterations not set.
  Defaulting to    0 iterations.
  Work space size for distributed Hartree potential not set.
  Defaulting to   0.200000E+03 MB.
  Algorithm-dependent basis array size parameters:
  | n_max_pulay                         :       10
  Presetting      1001 iterations before the initial mixing cycle
  is restarted anyway using the sc_init_iter criterion / keyword.
  Presetting a factor      1.000 between actual scf density residual
  and density convergence criterion sc_accuracy_rho below which sc_init_iter
  takes no effect.
  Geometry relaxation not requested: no relaxation will be performed.
  Handling of forces: Unphysical translation and rotation will be removed from forces.
  No accuracy limit for integral partition fn. given. Defaulting to  0.1000E-14.
  No threshold value for u(r) in integrations given. Defaulting to  0.1000E-05.
  No accuracy for occupation numbers given. Defaulting to  0.1000E-12.
  No threshold value for occupation numbers given. Defaulting to  0.0000E+00.
  No accuracy for fermi level given. Defaulting to  0.1000E-19.
  Maximum # of iterations to find E_F not set. Defaulting to  200.
  Preferred method for the eigenvalue solver ('KS_method') not specified in 'control.in'.
  Defaulting to serial version, 'lapack_fast'.
  Will not use alltoall communication since running on < 1024 CPUs.
  Threshold for basis singularities not set.
  Default threshold for basis singularities:  0.1000E-04
  partition_type (choice of integration weights) for integrals was not specified.
  | Using a version of the partition function of Stratmann and coworkers ('stratmann_smoother').
  | At each grid point, the set of atoms used to build the partition table is smoothly restricted to
  | only those atoms whose free-atom density would be non-zero at that grid point.
  Partitioning for Hartree potential was not defined. Using partition_type for integrals.
  | Adjusted default value of keyword multip_moments_threshold to:       0.10000000E-11
  | This value may affect high angular momentum components of the Hartree potential in periodic systems.
  No q(lm)/r^(l+1) cutoff set for long-range Hartree potential.
  | Using default value of  0.100000E-09 .
  | Verify using the multipole_threshold keyword.
  Defaulting to new monopole extrapolation.
  Density update method: automatic selection selected.
------------------------------------------------------------


------------------------------------------------------------
          Reading geometry description geometry.in.
------------------------------------------------------------
  Input structure read successfully.
  The structure contains       13 atoms,  and a total of         48.000 electrons.

  Input geometry:
  | No unit cell requested.
  | Atomic structure:
  |       Atom                x [A]            y [A]            z [A]
  |    1: Species C             0.00000000        0.00000000        0.00000000
  |    2: Species H             1.09300000        0.00000000        0.00000000
  |    3: Species N            -0.47961000        0.00000000       -1.41207000
  |    4: Species H            -1.35581000       -0.52136000       -1.45991000
  |    5: Species H            -0.62662000        0.96298000       -1.70734000
  |    6: Species C            -0.49584000        1.26211000        0.72868000
  |    7: Species H            -1.58789000        1.28919000        0.74431000
  |    8: Species H            -0.13407000        1.27425000        1.75947000
  |    9: Species H            -0.13407000        2.16087000        0.22380000
  |   10: Species C            -0.39425000       -1.28861000        0.74398000
  |   11: Species O            -0.10189000       -1.56493000        1.88303000
  |   12: Species O            -1.10210000       -2.13717000        0.06896000
  |   13: Species H            -0.89374000       -1.81649000       -0.82476000
  |

  | The smallest distance between any two atoms is         0.97210338 AA.
  |
  | The first atom of this pair is atom number                     12 .
  | The second atom of this pair is atom number                    13 .

  Number of empty states per atom not set in control.in - providing a guess from actual geometry.
  | Total number of empty states used during s.c.f. cycle:       29
  If you use a very high smearing, use empty_states (per atom!) in control.in to increase this value.

  Structure-dependent array size parameters: 
  | Maximum number of distinct radial functions  :       21
  | Maximum number of basis functions            :      119
  | Number of Kohn-Sham states (occupied + empty):       53
------------------------------------------------------------

------------------------------------------------------------
          Preparing all fixed parts of the calculation.
------------------------------------------------------------
  Determining machine precision:
    2.225073858507201E-308
  Setting up grids for atomic and cluster calculations.

  Creating wave function, potential, and density for free atoms.

  Species: H

  List of occupied orbitals and eigenvalues:
    n    l              occ      energy [Ha]    energy [eV]
    1    0           1.0000        -0.237589        -6.4651


  Species: C

  List of occupied orbitals and eigenvalues:
    n    l              occ      energy [Ha]    energy [eV]
    1    0           2.0000       -10.038835      -273.1706
    2    0           2.0000        -0.502696       -13.6791
    2    1           2.0000        -0.191971        -5.2238


  Species: N

  List of occupied orbitals and eigenvalues:
    n    l              occ      energy [Ha]    energy [eV]
    1    0           2.0000       -14.128000      -384.4424
    2    0           2.0000        -0.681077       -18.5330
    2    1           3.0000        -0.259788        -7.0692


  Species: O

  List of occupied orbitals and eigenvalues:
    n    l              occ      energy [Ha]    energy [eV]
    1    0           2.0000       -18.898188      -514.2459
    2    0           2.0000        -0.878505       -23.9053
    2    1           4.0000        -0.331779        -9.0282

  Creating fixed part of basis set: Ionic, confined, hydrogenic.
 
  H                    hydrogenic:
 
  List of hydrogenic basis orbitals: 
    n    l      effective z      eigenvalue [eV]  inner max. [A]     outer max. [A]     outer radius [A]   
    2    0         2.100000       -14.9728           0.193243           1.317208           4.583499
    2    1         3.500000       -41.6669           0.602369           0.602369           3.723403
 
 
  C                    hydrogenic:
 
  List of hydrogenic basis orbitals: 
    n    l      effective z      eigenvalue [eV]  inner max. [A]     outer max. [A]     outer radius [A]   
    2    1         1.700000        -9.7616           1.230570           1.230570           4.607917
    3    2         6.000000       -54.4224           0.792453           0.792453           3.883070
    2    0         4.900000       -81.6679           0.082559           0.562749           3.078220
 
 
  N                    hydrogenic:
 
  List of hydrogenic basis orbitals: 
    n    l      effective z      eigenvalue [eV]  inner max. [A]     outer max. [A]     outer radius [A]   
    2    1         1.800000       -10.9749           1.177451           1.177451           4.573712
    3    2         6.800000       -69.9026           0.704619           0.704619           3.538137
    3    0         5.800000       -50.8545           0.067388           1.191934           4.250239
 
 
  O                    hydrogenic:
 
  List of hydrogenic basis orbitals: 
    n    l      effective z      eigenvalue [eV]  inner max. [A]     outer max. [A]     outer radius [A]   
    2    1         1.800000       -10.9749           1.164242           1.164242           4.578029
    3    2         7.600000       -87.3180           0.624125           0.624125           3.251020
    3    0         6.400000       -61.9207           0.061167           1.081902           4.001998
 

  Adding cutoff potential to free-atom effective potential.
  Creating atomic-like basis functions for current effective potential.

  Species H                   :

  List of atomic basis orbitals and eigenvalues:
    n    l      energy [Ha]    energy [eV]    outer radius [A]
    1    0        -0.237589        -6.4651       4.527807


  Species C                   :

  List of atomic basis orbitals and eigenvalues:
    n    l      energy [Ha]    energy [eV]    outer radius [A]
    1    0       -10.038835      -273.1706       1.934409
    2    0        -0.502696       -13.6791       4.496620
    2    1        -0.191971        -5.2238       4.551928


  Species N                   :

  List of atomic basis orbitals and eigenvalues:
    n    l      energy [Ha]    energy [eV]    outer radius [A]
    1    0       -14.128000      -384.4424       1.637919
    2    0        -0.681077       -18.5330       4.463241
    2    1        -0.259788        -7.0692       4.518138


  Species O                   :

  List of atomic basis orbitals and eigenvalues:
    n    l      energy [Ha]    energy [eV]    outer radius [A]
    1    0       -18.898188      -514.2459       1.415765
    2    0        -0.878505       -23.9053       4.413171
    2    1        -0.331779        -9.0282       4.522403

  Assembling full basis from fixed parts.
  | Species H :   atomic orbital   1 s accepted.
  | Species H :    hydro orbital   2 s accepted.
  | Species H :    hydro orbital   2 p accepted.
  | Species C :   atomic orbital   1 s accepted.
  | Species C :    hydro orbital   2 s accepted.
  | Species C :   atomic orbital   2 s accepted.
  | Species C :   atomic orbital   2 p accepted.
  | Species C :    hydro orbital   2 p accepted.
  | Species C :    hydro orbital   3 d accepted.
  | Species N :   atomic orbital   1 s accepted.
  | Species N :    hydro orbital   3 s accepted.
  | Species N :   atomic orbital   2 s accepted.
  | Species N :   atomic orbital   2 p accepted.
  | Species N :    hydro orbital   2 p accepted.
  | Species N :    hydro orbital   3 d accepted.
  | Species O :   atomic orbital   1 s accepted.
  | Species O :    hydro orbital   3 s accepted.
  | Species O :   atomic orbital   2 s accepted.
  | Species O :   atomic orbital   2 p accepted.
  | Species O :    hydro orbital   2 p accepted.
  | Species O :    hydro orbital   3 d accepted.
 
  Basis size parameters after reduction:
  | Total number of radial functions:       21
  | Total number of basis functions :      119
 
  Per-task memory consumption for arrays in subroutine allocate_ext:
  |           5.250512MB.
  Testing on-site integration grid accuracy.
  |  Species  Function  <phi|h_atom|phi> (log., in eV)  <phi|h_atom|phi> (rad., in eV)
           1        1                 -6.4663192853                 -6.4651273558
           1        2                 13.7111246313                 13.7170609718
           1        3                 25.2673269279                 25.2674696378
           2        4               -273.1705927641               -273.1705631568
           2        5                -10.7109323383                -10.7107120029
           2        6                 17.4381822266                 17.4352413244
           2        7                 -5.2255326521                 -5.2270484734
           2        8                  8.6835629259                  8.6603288385
           2        9                 27.4952418996                 27.4953360207
           3       10               -384.4424306495               -384.4423701208
           3       11                 12.5842251816                 12.5842222903
           3       12                -15.7264628251                -15.7264433455
           3       13                 -7.0696854293                 -7.0701769954
           3       14                  8.8090390882                  8.7901077751
           3       15                 35.9586762123                 35.9588528632
           4       16               -514.2458688638               -514.2457643834
           4       17                 15.1795651126                 15.1795290741
           4       18                -21.5359799773                -21.5360846186
           4       19                 -9.0283069236                 -9.0284644067
           4       20                  8.3027758564                  8.2834874195
           4       21                 45.8339351984                 45.8338762259

  Preparing densities etc. for the partition functions (integrals / Hartree potential).

  Preparations completed.
  max(cpu_time)          :      0.149 s.
  Wall clock time (cpu1) :      0.150 s.
------------------------------------------------------------

------------------------------------------------------------
          Begin self-consistency loop: Initialization.

          Date     :  20200805, Time     :  185502.795
------------------------------------------------------------

  Initializing index lists of integration centers etc. from given atomic structure:
  | Number of centers in hartree potential         :        13
  | Number of centers in hartree multipole         :        13
  | Number of centers in electron density summation:        13
  | Number of centers in basis integrals           :        13
  | Number of centers in integrals                 :        13
  | Number of centers in hamiltonian               :        13
  Partitioning the integration grid into batches with parallel hashing+maxmin method.
  | Number of batches:      958
  | Maximal batch size:     139
  | Minimal batch size:      66
  | Average batch size:      72.699
  | Standard deviation of batch sizes:      17.228

  Integration load balanced across     1 MPI tasks.
  Work distribution over tasks is as follows:
  Task     0 has      69646 integration points.
  Initializing partition tables, free-atom densities, potentials, etc. across the integration grid (initialize_grid_storage).
  | initialize_grid_storage: Actual outermost partition radius vs. multipole_radius_free
  | (-- VB: in principle, multipole_radius_free should be larger, hence this output)
  | Species        1: Confinement radius =              4.999999999999999 AA, multipole_radius_free =              5.054417573612229 AA.
  | Species        1: outer_partition_radius set to              5.054417573612229 AA .
  | Species        2: Confinement radius =              4.999999999999999 AA, multipole_radius_free =              5.019602836301480 AA.
  | Species        2: outer_partition_radius set to              5.019602836301480 AA .
  | Species        3: Confinement radius =              4.999999999999999 AA, multipole_radius_free =              5.043624274424571 AA.
  | Species        3: outer_partition_radius set to              5.043624274424571 AA .
  | Species        4: Confinement radius =              4.999999999999999 AA, multipole_radius_free =              5.048384829883283 AA.
  | Species        4: outer_partition_radius set to              5.048384829883283 AA .
  | Original list of interatomic distances with          13 x         13 entries is created.
  | Net number of integration points:    69646
  | of which are non-zero points    :    59234
  Renormalizing the initial density to the exact electron count on the 3D integration grid.
  | Initial density: Formal number of electrons (from input files) :      48.0000000000
  | Integrated number of electrons on 3D grid     :      47.9998933400
  | Charge integration error                      :      -0.0001066600
  | Normalization factor for density and gradient :       1.0000022221
  Obtaining max. number of non-zero basis functions in each batch (get_n_compute_maxes).
  | Maximal number of non-zero basis functions:      119 in task     0
  Selecting the method for density update.
  Loop over occupied states selected for charge density update.
  Allocating        0.050 MB for KS_eigenvector
  Integrating Hamiltonian matrix: batch-based integration.
  Time summed over all CPUs for integration: real work        0.500 s, elapsed        0.500 s
  Integrating overlap matrix.
  Time summed over all CPUs for integration: real work        0.212 s, elapsed        0.212 s

  Updating Kohn-Sham eigenvalues and eigenvectors using ELSI and the ELPA eigensolver.
  Overlap matrix is nonsingular
  | Lowest eigenvalue of overlap  :  0.50E-02
  | Highest eigenvalue of overlap :  0.64E+01
  Finished singularity check of overlap matrix
  | Time :     0.002 s
  Finished Cholesky decomposition
  | Time :     0.000 s
  Finished transformation to standard eigenproblem
  | Time :     0.000 s
  Starting LAPACK eigensolver
  Finished solving standard eigenproblem
  | Time :     0.002 s
  Finished back-transformation of eigenvectors
  | Time :     0.000 s

  Obtaining occupation numbers and chemical potential using ELSI.
  | Chemical potential (Fermi level):    -9.46440010eV
  Writing Kohn-Sham eigenvalues.

  State    Occupation    Eigenvalue [Ha]    Eigenvalue [eV]
      1       2.00000         -19.008060         -517.23562
      2       2.00000         -18.977123         -516.39378
      3       2.00000         -14.247413         -387.69184
      4       2.00000         -10.166862         -276.65439
      5       2.00000         -10.141949         -275.97648
      6       2.00000         -10.132071         -275.70769
      7       2.00000          -1.182807          -32.18582
      8       2.00000          -1.102298          -29.99506
      9       2.00000          -0.994770          -27.06906
     10       2.00000          -0.859514          -23.38857
     11       2.00000          -0.756528          -20.58617
     12       2.00000          -0.684153          -18.61675
     13       2.00000          -0.650660          -17.70535
     14       2.00000          -0.595396          -16.20154
     15       2.00000          -0.575812          -15.66865
     16       2.00000          -0.562831          -15.31542
     17       2.00000          -0.557704          -15.17590
     18       2.00000          -0.532110          -14.47945
     19       2.00000          -0.519247          -14.12942
     20       2.00000          -0.503685          -13.70597
     21       2.00000          -0.473041          -12.87211
     22       2.00000          -0.429468          -11.68642
     23       2.00000          -0.403467          -10.97890
     24       2.00000          -0.391163          -10.64407
     25       0.00000          -0.149973           -4.08098
     26       0.00000          -0.069799           -1.89932
     27       0.00000          -0.028482           -0.77504
     28       0.00000          -0.016819           -0.45766
     29       0.00000           0.000394            0.01073
     30       0.00000           0.008118            0.22091
     31       0.00000           0.023306            0.63418
     32       0.00000           0.032335            0.87987
     33       0.00000           0.055579            1.51238
     34       0.00000           0.064433            1.75332
     35       0.00000           0.081361            2.21395
     36       0.00000           0.130336            3.54663
     37       0.00000           0.166346            4.52652
     38       0.00000           0.202987            5.52355
     39       0.00000           0.218040            5.93318
     40       0.00000           0.230125            6.26203
     41       0.00000           0.235969            6.42104
     42       0.00000           0.264516            7.19786
     43       0.00000           0.286787            7.80386
     44       0.00000           0.312473            8.50283
     45       0.00000           0.328661            8.94333
     46       0.00000           0.353175            9.61039
     47       0.00000           0.371841           10.11830
     48       0.00000           0.383914           10.44683
     49       0.00000           0.431391           11.73874
     50       0.00000           0.504510           13.72842
     51       0.00000           0.523116           14.23472
     52       0.00000           0.556873           15.15328
     53       0.00000           0.569907           15.50796

  Highest occupied state (VBM) at    -10.64407470 eV
  | Occupation number:      2.00000000

  Lowest unoccupied state (CBM) at    -4.08098375 eV
  | Occupation number:      0.00000000

  Overall HOMO-LUMO gap:      6.56309095 eV.
  Calculating total energy contributions from superposition of free atom densities.

  Total energy components:
  | Sum of eigenvalues            :        -188.89626441 Ha       -5140.12888134 eV
  | XC energy correction          :         -41.81447207 Ha       -1137.82967717 eV
  | XC potential correction       :          53.75544351 Ha        1462.76004221 eV
  | Free-atom electrostatic energy:        -146.79785168 Ha       -3994.57278595 eV
  | Hartree energy correction     :           0.00000000 Ha           0.00000000 eV
  | vdW energy correction         :           0.00000000 Ha           0.00000000 eV
  | Entropy correction            :           0.00000000 Ha           0.00000000 eV
  | ---------------------------
  | Total energy                  :        -323.75314465 Ha       -8809.77130225 eV
  | Total energy, T -> 0          :        -323.75314465 Ha       -8809.77130225 eV  <-- do not rely on this value for anything but (periodic) metals
  | Electronic free energy        :        -323.75314465 Ha       -8809.77130225 eV

  Derived energy quantities:
  | Kinetic energy                :         320.55529098 Ha        8722.75327634 eV
  | Electrostatic energy          :        -602.49396356 Ha      -16394.69490142 eV
  | Energy correction for multipole
  | error in Hartree potential    :           0.00000000 Ha           0.00000000 eV
  | Sum of eigenvalues per atom                           :        -395.39452933 eV
  | Total energy (T->0) per atom                          :        -677.67471556 eV  <-- do not rely on this value for anything but (periodic) metals
  | Electronic free energy per atom                       :        -677.67471556 eV
  Initialize hartree_potential_storage
  Max. number of atoms included in rho_multipole:           13

  End scf initialization - timings             :  max(cpu_time)    wall_clock(cpu1)
  | Time for scf. initialization               :        1.157 s           1.159 s
  | Boundary condition initialization          :        0.000 s           0.001 s
  | Integration                                :        0.712 s           0.713 s
  | Solution of K.-S. eqns.                    :        0.004 s           0.004 s
  | Grid partitioning                          :        0.112 s           0.112 s
  | Preloading free-atom quantities on grid    :        0.002 s           0.002 s
  | Free-atom superposition energy             :        0.084 s           0.085 s
  | Total energy evaluation                    :        0.000 s           0.000 s

  Partial memory accounting:
  | Current value for overall tracked memory usage on task 0  :           0.165 MB
  | Peak value for overall tracked memory usage on task 0     :           0.678 MB after allocating wave
  | Largest tracked array allocation on task 0 so far         :           0.132 MB  when allocating H_times_psi
  Note:  These values currently only include a subset of arrays which are explicitly tracked.
  The "true" memory usage will be greater.
------------------------------------------------------------

------------------------------------------------------------
          Begin self-consistency iteration #    1

  Date     :  20200805, Time     :  185503.954
------------------------------------------------------------
  Evaluating new KS density.
  Integration grid: deviation in total charge (<rho> - N_e) =   1.421085E-14
  Pulay mixing of updated and previous charge densities.

  Evaluating partitioned Hartree potential by multipole expansion.
  | Analytical far-field extrapolation by fixed multipoles:
  | Hartree multipole sum: apparent total charge =  -0.211543E-03
  Summing up the Hartree potential.
  Time summed over all CPUs for potential: real work        0.283 s, elapsed        0.283 s
  | RMS charge density error from multipole expansion :   0.592783E-02

  Integrating Hamiltonian matrix: batch-based integration.
  Time summed over all CPUs for integration: real work        0.500 s, elapsed        0.500 s

  Updating Kohn-Sham eigenvalues and eigenvectors using ELSI and the ELPA eigensolver.
  Finished Cholesky decomposition
  | Time :     0.000 s
  Finished transformation to standard eigenproblem
  | Time :     0.000 s
  Starting LAPACK eigensolver
  Finished solving standard eigenproblem
  | Time :     0.002 s
  Finished back-transformation of eigenvectors
  | Time :     0.000 s

  Obtaining occupation numbers and chemical potential using ELSI.
  | Chemical potential (Fermi level):    -8.42092492eV
  Writing Kohn-Sham eigenvalues.

  State    Occupation    Eigenvalue [Ha]    Eigenvalue [eV]
      1       2.00000         -18.910868         -514.59091
      2       2.00000         -18.830572         -512.40593
      3       2.00000         -14.110609         -383.96920
      4       2.00000         -10.115640         -275.26056
      5       2.00000         -10.068436         -273.97608
      6       2.00000         -10.034471         -273.05184
      7       2.00000          -1.135959          -30.91101
      8       2.00000          -1.037113          -28.22127
      9       2.00000          -0.933494          -25.40166
     10       2.00000          -0.797898          -21.71190
     11       2.00000          -0.706742          -19.23142
     12       2.00000          -0.642551          -17.48471
     13       2.00000          -0.601186          -16.35910
     14       2.00000          -0.535839          -14.58091
     15       2.00000          -0.525229          -14.29222
     16       2.00000          -0.512239          -13.93874
     17       2.00000          -0.489291          -13.31428
     18       2.00000          -0.472840          -12.86662
     19       2.00000          -0.465406          -12.66434
     20       2.00000          -0.447481          -12.17659
     21       2.00000          -0.421138          -11.45974
     22       2.00000          -0.367709          -10.00588
     23       2.00000          -0.331054           -9.00844
     24       2.00000          -0.323941           -8.81487
     25       0.00000          -0.112171           -3.05232
     26       0.00000          -0.047884           -1.30298
     27       0.00000           0.006664            0.18133
     28       0.00000           0.020187            0.54931
     29       0.00000           0.031410            0.85471
     30       0.00000           0.032088            0.87316
     31       0.00000           0.061762            1.68064
     32       0.00000           0.063728            1.73412
     33       0.00000           0.090107            2.45193
     34       0.00000           0.097254            2.64642
     35       0.00000           0.119166            3.24268
     36       0.00000           0.159435            4.33844
     37       0.00000           0.191704            5.21654
     38       0.00000           0.231833            6.30848
     39       0.00000           0.245319            6.67547
     40       0.00000           0.259186            7.05280
     41       0.00000           0.268457            7.30509
     42       0.00000           0.300164            8.16788
     43       0.00000           0.320235            8.71405
     44       0.00000           0.350530            9.53840
     45       0.00000           0.363542            9.89249
     46       0.00000           0.388138           10.56178
     47       0.00000           0.411147           11.18787
     48       0.00000           0.419120           11.40483
     49       0.00000           0.465631           12.67045
     50       0.00000           0.538252           14.64659
     51       0.00000           0.554977           15.10170
     52       0.00000           0.587459           15.98557
     53       0.00000           0.605360           16.47268

  Highest occupied state (VBM) at     -8.81487344 eV
  | Occupation number:      2.00000000

  Lowest unoccupied state (CBM) at    -3.05231636 eV
  | Occupation number:      0.00000000

  Overall HOMO-LUMO gap:      5.76255709 eV.

  Total energy components:
  | Sum of eigenvalues            :        -185.63540478 Ha       -5051.39637623 eV
  | XC energy correction          :         -42.13519219 Ha       -1146.55691567 eV
  | XC potential correction       :          54.17241437 Ha        1474.10639681 eV
  | Free-atom electrostatic energy:        -146.79785168 Ha       -3994.57278595 eV
  | Hartree energy correction     :          -3.18194007 Ha         -86.58499480 eV
  | vdW energy correction         :           0.00000000 Ha           0.00000000 eV
  | Entropy correction            :           0.00000000 Ha           0.00000000 eV
  | ---------------------------
  | Total energy                  :        -323.57797435 Ha       -8805.00467585 eV
  | Total energy, T -> 0          :        -323.57797435 Ha       -8805.00467585 eV  <-- do not rely on this value for anything but (periodic) metals
  | Electronic free energy        :        -323.57797435 Ha       -8805.00467585 eV

  Derived energy quantities:
  | Kinetic energy                :         322.30743650 Ha        8770.43158180 eV
  | Electrostatic energy          :        -603.75021866 Ha      -16428.87934198 eV
  | Energy correction for multipole
  | error in Hartree potential    :           0.01168855 Ha           0.31806172 eV
  | Sum of eigenvalues per atom                           :        -388.56895202 eV
  | Total energy (T->0) per atom                          :        -677.30805199 eV  <-- do not rely on this value for anything but (periodic) metals
  | Electronic free energy per atom                       :        -677.30805199 eV

  Self-consistency convergence accuracy:
  | Change of charge density      :  0.5773E+00
  | Change of sum of eigenvalues  :  0.8873E+02 eV
  | Change of total energy        :  0.4767E+01 eV

  End self-consistency iteration #     1       :  max(cpu_time)    wall_clock(cpu1)
  | Time for this iteration                    :        1.199 s           1.200 s
  | Charge density update                      :        0.397 s           0.398 s
  | Density mixing                             :        0.006 s           0.005 s
  | Hartree multipole update                   :        0.009 s           0.009 s
  | Hartree multipole summation                :        0.284 s           0.284 s
  | Integration                                :        0.500 s           0.501 s
  | Solution of K.-S. eqns.                    :        0.002 s           0.002 s
  | Total energy evaluation                    :        0.000 s           0.000 s

  Partial memory accounting:
  | Current value for overall tracked memory usage on task 0  :           0.165 MB
  | Peak value for overall tracked memory usage on task 0     :           0.695 MB after allocating gradient_basis_wave
  | Largest tracked array allocation on task 0 so far         :           0.397 MB  when allocating gradient_basis_wave
  Note:  These values currently only include a subset of arrays which are explicitly tracked.
  The "true" memory usage will be greater.
------------------------------------------------------------

------------------------------------------------------------
          Begin self-consistency iteration #    2

  Date     :  20200805, Time     :  185505.154
------------------------------------------------------------
  Evaluating new KS density.
  Integration grid: deviation in total charge (<rho> - N_e) =   7.105427E-15
  Pulay mixing of updated and previous charge densities.

  Evaluating partitioned Hartree potential by multipole expansion.
  | Analytical far-field extrapolation by fixed multipoles:
  | Hartree multipole sum: apparent total charge =  -0.344280E-03
  Summing up the Hartree potential.
  Time summed over all CPUs for potential: real work        0.283 s, elapsed        0.283 s
  | RMS charge density error from multipole expansion :   0.141020E-01

  Integrating Hamiltonian matrix: batch-based integration.
  Time summed over all CPUs for integration: real work        0.497 s, elapsed        0.497 s

  Updating Kohn-Sham eigenvalues and eigenvectors using ELSI and the ELPA eigensolver.
  Finished Cholesky decomposition
  | Time :     0.000 s
  Finished transformation to standard eigenproblem
  | Time :     0.000 s
  Starting LAPACK eigensolver
  Finished solving standard eigenproblem
  | Time :     0.002 s
  Finished back-transformation of eigenvectors
  | Time :     0.000 s

  Obtaining occupation numbers and chemical potential using ELSI.
  | Chemical potential (Fermi level):    -3.25794405eV
  Highest occupied state (VBM) at     -6.98172580 eV
  | Occupation number:      2.00000000

  Lowest unoccupied state (CBM) at    -1.74783283 eV
  | Occupation number:      0.00000000

  Overall HOMO-LUMO gap:      5.23389297 eV.

  Checking to see if s.c.f. parameters should be adjusted.

  Total energy components:
  | Sum of eigenvalues            :        -182.19817584 Ha       -4957.86461796 eV
  | XC energy correction          :         -42.48655624 Ha       -1156.11801793 eV
  | XC potential correction       :          54.62758487 Ha        1486.49221620 eV
  | Free-atom electrostatic energy:        -146.79785168 Ha       -3994.57278595 eV
  | Hartree energy correction     :          -6.64771299 Ha        -180.89347413 eV
  | vdW energy correction         :           0.00000000 Ha           0.00000000 eV
  | Entropy correction            :           0.00000000 Ha           0.00000000 eV
  | ---------------------------
  | Total energy                  :        -323.50271188 Ha       -8802.95667978 eV
  | Total energy, T -> 0          :        -323.50271188 Ha       -8802.95667978 eV  <-- do not rely on this value for anything but (periodic) metals
  | Electronic free energy        :        -323.50271188 Ha       -8802.95667978 eV

  Derived energy quantities:
  | Kinetic energy                :         323.60351837 Ha        8805.69976385 eV
  | Electrostatic energy          :        -604.61967401 Ha      -16452.53842570 eV
  | Energy correction for multipole
  | error in Hartree potential    :           0.02570005 Ha           0.69933381 eV
  | Sum of eigenvalues per atom                           :        -381.37420138 eV
  | Total energy (T->0) per atom                          :        -677.15051383 eV  <-- do not rely on this value for anything but (periodic) metals
  | Electronic free energy per atom                       :        -677.15051383 eV

  Self-consistency convergence accuracy:
  | Change of charge density      :  0.3613E+00
  | Change of sum of eigenvalues  :  0.9353E+02 eV
  | Change of total energy        :  0.2048E+01 eV

  End self-consistency iteration #     2       :  max(cpu_time)    wall_clock(cpu1)
  | Time for this iteration                    :        1.188 s           1.188 s
  | Charge density update                      :        0.390 s           0.390 s
  | Density mixing                             :        0.007 s           0.007 s
  | Hartree multipole update                   :        0.009 s           0.009 s
  | Hartree multipole summation                :        0.283 s           0.283 s
  | Integration                                :        0.497 s           0.497 s
  | Solution of K.-S. eqns.                    :        0.002 s           0.002 s
  | Total energy evaluation                    :        0.000 s           0.000 s

  Partial memory accounting:
  | Current value for overall tracked memory usage on task 0  :           0.166 MB
  | Peak value for overall tracked memory usage on task 0     :           0.695 MB after allocating gradient_basis_wave
  | Largest tracked array allocation on task 0 so far         :           0.397 MB  when allocating gradient_basis_wave
  Note:  These values currently only include a subset of arrays which are explicitly tracked.
  The "true" memory usage will be greater.
------------------------------------------------------------

------------------------------------------------------------
          Begin self-consistency iteration #    3

  Date     :  20200805, Time     :  185506.344
------------------------------------------------------------
  Evaluating new KS density.
  Integration grid: deviation in total charge (<rho> - N_e) =   0.000000E+00
  Pulay mixing of updated and previous charge densities.

  Evaluating partitioned Hartree potential by multipole expansion.
  | Analytical far-field extrapolation by fixed multipoles:
  | Hartree multipole sum: apparent total charge =  -0.435883E-03
  Summing up the Hartree potential.
  Time summed over all CPUs for potential: real work        0.283 s, elapsed        0.283 s
  | RMS charge density error from multipole expansion :   0.222570E-01

  Integrating Hamiltonian matrix: batch-based integration.
  Time summed over all CPUs for integration: real work        0.497 s, elapsed        0.497 s

  Updating Kohn-Sham eigenvalues and eigenvectors using ELSI and the ELPA eigensolver.
  Finished Cholesky decomposition
  | Time :     0.000 s
  Finished transformation to standard eigenproblem
  | Time :     0.000 s
  Starting LAPACK eigensolver
  Finished solving standard eigenproblem
  | Time :     0.002 s
  Finished back-transformation of eigenvectors
  | Time :     0.000 s

  Obtaining occupation numbers and chemical potential using ELSI.
  | Chemical potential (Fermi level):    -2.71221174eV
  Highest occupied state (VBM) at     -6.37927448 eV
  | Occupation number:      2.00000000

  Lowest unoccupied state (CBM) at    -1.03961324 eV
  | Occupation number:      0.00000000

  Overall HOMO-LUMO gap:      5.33966124 eV.

  Total energy components:
  | Sum of eigenvalues            :        -180.90375632 Ha       -4922.64167062 eV
  | XC energy correction          :         -42.63864155 Ha       -1160.25646976 eV
  | XC potential correction       :          54.82125347 Ha        1491.76220706 eV
  | Free-atom electrostatic energy:        -146.79785168 Ha       -3994.57278595 eV
  | Hartree energy correction     :          -7.97192191 Ha        -216.92703234 eV
  | vdW energy correction         :           0.00000000 Ha           0.00000000 eV
  | Entropy correction            :           0.00000000 Ha           0.00000000 eV
  | ---------------------------
  | Total energy                  :        -323.49091799 Ha       -8802.63575162 eV
  | Total energy, T -> 0          :        -323.49091799 Ha       -8802.63575162 eV  <-- do not rely on this value for anything but (periodic) metals
  | Electronic free energy        :        -323.49091799 Ha       -8802.63575162 eV

  Derived energy quantities:
  | Kinetic energy                :         323.22960008 Ha        8795.52492962 eV
  | Electrostatic energy          :        -604.08187652 Ha      -16437.90421147 eV
  | Energy correction for multipole
  | error in Hartree potential    :           0.03626162 Ha           0.98672889 eV
  | Sum of eigenvalues per atom                           :        -378.66474389 eV
  | Total energy (T->0) per atom                          :        -677.12582705 eV  <-- do not rely on this value for anything but (periodic) metals
  | Electronic free energy per atom                       :        -677.12582705 eV

  Self-consistency convergence accuracy:
  | Change of charge density      :  0.2019E+00
  | Change of sum of eigenvalues  :  0.3522E+02 eV
  | Change of total energy        :  0.3209E+00 eV

  End self-consistency iteration #     3       :  max(cpu_time)    wall_clock(cpu1)
  | Time for this iteration                    :        1.189 s           1.190 s
  | Charge density update                      :        0.389 s           0.390 s
  | Density mixing                             :        0.008 s           0.008 s
  | Hartree multipole update                   :        0.009 s           0.009 s
  | Hartree multipole summation                :        0.283 s           0.283 s
  | Integration                                :        0.497 s           0.498 s
  | Solution of K.-S. eqns.                    :        0.002 s           0.002 s
  | Total energy evaluation                    :        0.000 s           0.000 s

  Partial memory accounting:
  | Current value for overall tracked memory usage on task 0  :           0.166 MB
  | Peak value for overall tracked memory usage on task 0     :           0.695 MB after allocating gradient_basis_wave
  | Largest tracked array allocation on task 0 so far         :           0.397 MB  when allocating gradient_basis_wave
  Note:  These values currently only include a subset of arrays which are explicitly tracked.
  The "true" memory usage will be greater.
------------------------------------------------------------

------------------------------------------------------------
          Begin self-consistency iteration #    4

  Date     :  20200805, Time     :  185507.535
------------------------------------------------------------
  Evaluating new KS density.
  Integration grid: deviation in total charge (<rho> - N_e) =   1.421085E-14
  Pulay mixing of updated and previous charge densities.

  Evaluating partitioned Hartree potential by multipole expansion.
  | Analytical far-field extrapolation by fixed multipoles:
  | Hartree multipole sum: apparent total charge =  -0.465300E-03
  Summing up the Hartree potential.
  Time summed over all CPUs for potential: real work        0.283 s, elapsed        0.283 s
  | RMS charge density error from multipole expansion :   0.258329E-01

  Integrating Hamiltonian matrix: batch-based integration.
  Time summed over all CPUs for integration: real work        0.497 s, elapsed        0.497 s

  Updating Kohn-Sham eigenvalues and eigenvectors using ELSI and the ELPA eigensolver.
  Finished Cholesky decomposition
  | Time :     0.000 s
  Finished transformation to standard eigenproblem
  | Time :     0.000 s
  Starting LAPACK eigensolver
  Finished solving standard eigenproblem
  | Time :     0.002 s
  Finished back-transformation of eigenvectors
  | Time :     0.000 s

  Obtaining occupation numbers and chemical potential using ELSI.
  | Chemical potential (Fermi level):    -2.64227008eV
  Highest occupied state (VBM) at     -6.12205718 eV
  | Occupation number:      2.00000000

  Lowest unoccupied state (CBM) at    -0.96650275 eV
  | Occupation number:      0.00000000

  Overall HOMO-LUMO gap:      5.15555443 eV.

  Total energy components:
  | Sum of eigenvalues            :        -180.82191485 Ha       -4920.41465091 eV
  | XC energy correction          :         -42.67382357 Ha       -1161.21382121 eV
  | XC potential correction       :          54.86514339 Ha        1492.95651244 eV
  | Free-atom electrostatic energy:        -146.79785168 Ha       -3994.57278595 eV
  | Hartree energy correction     :          -8.06151008 Ha        -219.36485036 eV
  | vdW energy correction         :           0.00000000 Ha           0.00000000 eV
  | Entropy correction            :           0.00000000 Ha           0.00000000 eV
  | ---------------------------
  | Total energy                  :        -323.48995679 Ha       -8802.60959599 eV
  | Total energy, T -> 0          :        -323.48995679 Ha       -8802.60959599 eV  <-- do not rely on this value for anything but (periodic) metals
  | Electronic free energy        :        -323.48995679 Ha       -8802.60959599 eV

  Derived energy quantities:
  | Kinetic energy                :         322.82063710 Ha        8784.39648076 eV
  | Electrostatic energy          :        -603.63677032 Ha      -16425.79225553 eV
  | Energy correction for multipole
  | error in Hartree potential    :           0.04030071 Ha           1.09663816 eV
  | Sum of eigenvalues per atom                           :        -378.49343469 eV
  | Total energy (T->0) per atom                          :        -677.12381508 eV  <-- do not rely on this value for anything but (periodic) metals
  | Electronic free energy per atom                       :        -677.12381508 eV

  Self-consistency convergence accuracy:
  | Change of charge density      :  0.6687E-01
  | Change of sum of eigenvalues  :  0.2227E+01 eV
  | Change of total energy        :  0.2616E-01 eV

  End self-consistency iteration #     4       :  max(cpu_time)    wall_clock(cpu1)
  | Time for this iteration                    :        1.189 s           1.197 s
  | Charge density update                      :        0.389 s           0.395 s
  | Density mixing                             :        0.010 s           0.010 s
  | Hartree multipole update                   :        0.009 s           0.009 s
  | Hartree multipole summation                :        0.283 s           0.283 s
  | Integration                                :        0.497 s           0.497 s
  | Solution of K.-S. eqns.                    :        0.002 s           0.003 s
  | Total energy evaluation                    :        0.000 s           0.000 s

  Partial memory accounting:
  | Current value for overall tracked memory usage on task 0  :           0.166 MB
  | Peak value for overall tracked memory usage on task 0     :           0.696 MB after allocating gradient_basis_wave
  | Largest tracked array allocation on task 0 so far         :           0.397 MB  when allocating gradient_basis_wave
  Note:  These values currently only include a subset of arrays which are explicitly tracked.
  The "true" memory usage will be greater.
------------------------------------------------------------

------------------------------------------------------------
          Begin self-consistency iteration #    5

  Date     :  20200805, Time     :  185508.733
------------------------------------------------------------
  Evaluating new KS density.
  Integration grid: deviation in total charge (<rho> - N_e) =   2.131628E-14
  Pulay mixing of updated and previous charge densities.

  Evaluating partitioned Hartree potential by multipole expansion.
  | Analytical far-field extrapolation by fixed multipoles:
  | Hartree multipole sum: apparent total charge =  -0.460454E-03
  Summing up the Hartree potential.
  Time summed over all CPUs for potential: real work        0.283 s, elapsed        0.283 s
  | RMS charge density error from multipole expansion :   0.255768E-01

  Integrating Hamiltonian matrix: batch-based integration.
  Time summed over all CPUs for integration: real work        0.497 s, elapsed        0.497 s

  Updating Kohn-Sham eigenvalues and eigenvectors using ELSI and the ELPA eigensolver.
  Finished Cholesky decomposition
  | Time :     0.000 s
  Finished transformation to standard eigenproblem
  | Time :     0.000 s
  Starting LAPACK eigensolver
  Finished solving standard eigenproblem
  | Time :     0.002 s
  Finished back-transformation of eigenvectors
  | Time :     0.000 s

  Obtaining occupation numbers and chemical potential using ELSI.
  | Chemical potential (Fermi level):    -2.66934064eV
  Highest occupied state (VBM) at     -6.24745144 eV
  | Occupation number:      2.00000000

  Lowest unoccupied state (CBM) at    -1.02975744 eV
  | Occupation number:      0.00000000

  Overall HOMO-LUMO gap:      5.21769400 eV.

  Total energy components:
  | Sum of eigenvalues            :        -180.95390646 Ha       -4924.00632538 eV
  | XC energy correction          :         -42.65607507 Ha       -1160.73086004 eV
  | XC potential correction       :          54.84215418 Ha        1492.33094427 eV
  | Free-atom electrostatic energy:        -146.79785168 Ha       -3994.57278595 eV
  | Hartree energy correction     :          -7.92396314 Ha        -215.62200769 eV
  | vdW energy correction         :           0.00000000 Ha           0.00000000 eV
  | Entropy correction            :           0.00000000 Ha           0.00000000 eV
  | ---------------------------
  | Total energy                  :        -323.48964217 Ha       -8802.60103479 eV
  | Total energy, T -> 0          :        -323.48964217 Ha       -8802.60103479 eV  <-- do not rely on this value for anything but (periodic) metals
  | Electronic free energy        :        -323.48964217 Ha       -8802.60103479 eV

  Derived energy quantities:
  | Kinetic energy                :         322.74988030 Ha        8782.47109030 eV
  | Electrostatic energy          :        -603.58344740 Ha      -16424.34126506 eV
  | Energy correction for multipole
  | error in Hartree potential    :           0.03973889 Ha           1.08135014 eV
  | Sum of eigenvalues per atom                           :        -378.76971734 eV
  | Total energy (T->0) per atom                          :        -677.12315652 eV  <-- do not rely on this value for anything but (periodic) metals
  | Electronic free energy per atom                       :        -677.12315652 eV

  Self-consistency convergence accuracy:
  | Change of charge density      :  0.2329E-01
  | Change of sum of eigenvalues  : -0.3592E+01 eV
  | Change of total energy        :  0.8561E-02 eV

  End self-consistency iteration #     5       :  max(cpu_time)    wall_clock(cpu1)
  | Time for this iteration                    :        1.190 s           1.191 s
  | Charge density update                      :        0.388 s           0.388 s
  | Density mixing                             :        0.011 s           0.011 s
  | Hartree multipole update                   :        0.009 s           0.009 s
  | Hartree multipole summation                :        0.283 s           0.283 s
  | Integration                                :        0.497 s           0.497 s
  | Solution of K.-S. eqns.                    :        0.002 s           0.003 s
  | Total energy evaluation                    :        0.000 s           0.000 s

  Partial memory accounting:
  | Current value for overall tracked memory usage on task 0  :           0.166 MB
  | Peak value for overall tracked memory usage on task 0     :           0.696 MB after allocating gradient_basis_wave
  | Largest tracked array allocation on task 0 so far         :           0.397 MB  when allocating gradient_basis_wave
  Note:  These values currently only include a subset of arrays which are explicitly tracked.
  The "true" memory usage will be greater.
------------------------------------------------------------

------------------------------------------------------------
          Begin self-consistency iteration #    6

  Date     :  20200805, Time     :  185509.925
------------------------------------------------------------
  Evaluating new KS density.
  Integration grid: deviation in total charge (<rho> - N_e) =   7.105427E-15
  Pulay mixing of updated and previous charge densities.

  Evaluating partitioned Hartree potential by multipole expansion.
  | Analytical far-field extrapolation by fixed multipoles:
  | Hartree multipole sum: apparent total charge =  -0.461246E-03
  Summing up the Hartree potential.
  Time summed over all CPUs for potential: real work        0.282 s, elapsed        0.282 s
  | RMS charge density error from multipole expansion :   0.258689E-01

  Integrating Hamiltonian matrix: batch-based integration.
  Time summed over all CPUs for integration: real work        0.497 s, elapsed        0.497 s

  Updating Kohn-Sham eigenvalues and eigenvectors using ELSI and the ELPA eigensolver.
  Finished Cholesky decomposition
  | Time :     0.000 s
  Finished transformation to standard eigenproblem
  | Time :     0.000 s
  Starting LAPACK eigensolver
  Finished solving standard eigenproblem
  | Time :     0.002 s
  Finished back-transformation of eigenvectors
  | Time :     0.000 s

  Obtaining occupation numbers and chemical potential using ELSI.
  | Chemical potential (Fermi level):    -2.67646901eV
  Highest occupied state (VBM) at     -6.27392226 eV
  | Occupation number:      2.00000000

  Lowest unoccupied state (CBM) at    -1.07190251 eV
  | Occupation number:      0.00000000

  Overall HOMO-LUMO gap:      5.20201976 eV.

  Total energy components:
  | Sum of eigenvalues            :        -181.01457325 Ha       -4925.65715294 eV
  | XC energy correction          :         -42.64824040 Ha       -1160.51766765 eV
  | XC potential correction       :          54.83196402 Ha        1492.05365579 eV
  | Free-atom electrostatic energy:        -146.79785168 Ha       -3994.57278595 eV
  | Hartree energy correction     :          -7.86086388 Ha        -213.90498963 eV
  | vdW energy correction         :           0.00000000 Ha           0.00000000 eV
  | Entropy correction            :           0.00000000 Ha           0.00000000 eV
  | ---------------------------
  | Total energy                  :        -323.48956520 Ha       -8802.59894039 eV
  | Total energy, T -> 0          :        -323.48956520 Ha       -8802.59894039 eV  <-- do not rely on this value for anything but (periodic) metals
  | Electronic free energy        :        -323.48956520 Ha       -8802.59894039 eV

  Derived energy quantities:
  | Kinetic energy                :         322.65202667 Ha        8779.80835754 eV
  | Electrostatic energy          :        -603.49335148 Ha      -16421.88963027 eV
  | Energy correction for multipole
  | error in Hartree potential    :           0.03979280 Ha           1.08281708 eV
  | Sum of eigenvalues per atom                           :        -378.89670407 eV
  | Total energy (T->0) per atom                          :        -677.12299541 eV  <-- do not rely on this value for anything but (periodic) metals
  | Electronic free energy per atom                       :        -677.12299541 eV

  Self-consistency convergence accuracy:
  | Change of charge density      :  0.1102E-01
  | Change of sum of eigenvalues  : -0.1651E+01 eV
  | Change of total energy        :  0.2094E-02 eV

  End self-consistency iteration #     6       :  max(cpu_time)    wall_clock(cpu1)
  | Time for this iteration                    :        1.192 s           1.193 s
  | Charge density update                      :        0.389 s           0.389 s
  | Density mixing                             :        0.012 s           0.012 s
  | Hartree multipole update                   :        0.009 s           0.009 s
  | Hartree multipole summation                :        0.283 s           0.283 s
  | Integration                                :        0.497 s           0.497 s
  | Solution of K.-S. eqns.                    :        0.002 s           0.003 s
  | Total energy evaluation                    :        0.000 s           0.000 s

  Partial memory accounting:
  | Current value for overall tracked memory usage on task 0  :           0.166 MB
  | Peak value for overall tracked memory usage on task 0     :           0.696 MB after allocating gradient_basis_wave
  | Largest tracked array allocation on task 0 so far         :           0.397 MB  when allocating gradient_basis_wave
  Note:  These values currently only include a subset of arrays which are explicitly tracked.
  The "true" memory usage will be greater.
------------------------------------------------------------

------------------------------------------------------------
          Begin self-consistency iteration #    7

  Date     :  20200805, Time     :  185511.118
------------------------------------------------------------
  Evaluating new KS density.
  Integration grid: deviation in total charge (<rho> - N_e) =   7.105427E-14
  Pulay mixing of updated and previous charge densities.

  Evaluating partitioned Hartree potential by multipole expansion.
  | Analytical far-field extrapolation by fixed multipoles:
  | Hartree multipole sum: apparent total charge =  -0.462310E-03
  Summing up the Hartree potential.
  Time summed over all CPUs for potential: real work        0.283 s, elapsed        0.283 s
  | RMS charge density error from multipole expansion :   0.260192E-01

  Integrating Hamiltonian matrix: batch-based integration.
  Time summed over all CPUs for integration: real work        0.496 s, elapsed        0.496 s

  Updating Kohn-Sham eigenvalues and eigenvectors using ELSI and the ELPA eigensolver.
  Finished Cholesky decomposition
  | Time :     0.000 s
  Finished transformation to standard eigenproblem
  | Time :     0.000 s
  Starting LAPACK eigensolver
  Finished solving standard eigenproblem
  | Time :     0.001 s
  Finished back-transformation of eigenvectors
  | Time :     0.000 s

[...]
  |   Hirshfeld dipole moment :      0.06011675
  |   Hirshfeld second moments:      0.00685968      -0.02461439      -0.01396882
  |                                 -0.02461439      -0.02479367       0.00547980
  |                                 -0.01396882       0.00547980      -0.02025967
  ----------------------------------------------------------------------
  | Atom    12: O
  |   Hirshfeld charge        :     -0.13742576
  |   Free atom volume        :     23.61338643
  |   Hirshfeld volume        :     21.00669035
  |   Hirshfeld dipole vector :      0.02061723       0.03465843      -0.01158505
  |   Hirshfeld dipole moment :      0.04195819
  |   Hirshfeld second moments:      0.05333692      -0.01131104       0.00106301
  |                                 -0.01131104       0.03260297       0.01477067
  |                                  0.00106301       0.01477067       0.08668503
  ----------------------------------------------------------------------
  | Atom    13: H
  |   Hirshfeld charge        :      0.14072679
  |   Free atom volume        :      9.95071624
  |   Hirshfeld volume        :      6.98359303
  |   Hirshfeld dipole vector :      0.00798746      -0.00953085      -0.08175125
  |   Hirshfeld dipole moment :      0.08269162
  |   Hirshfeld second moments:      0.10789786      -0.01275489       0.01425900
  |                                 -0.01275489       0.07427563       0.02924676
  |                                  0.01425900       0.02924676       0.08666621
  ----------------------------------------------------------------------


  Total energy components:
  | Sum of eigenvalues            :        -181.00510368 Ha       -4925.39947275 eV
  | XC energy correction          :         -42.64642512 Ha       -1160.46827137 eV
  | XC potential correction       :          54.82967759 Ha        1491.99143883 eV
  | Free-atom electrostatic energy:        -146.79785168 Ha       -3994.57278595 eV
  | Hartree energy correction     :          -7.86984400 Ha        -214.14935104 eV
  | vdW energy correction         :          -0.00328077 Ha          -0.08927421 eV
  | Entropy correction            :           0.00000000 Ha           0.00000000 eV
  | ---------------------------
  | Total energy                  :        -323.49282766 Ha       -8802.68771649 eV
  | Total energy, T -> 0          :        -323.49282766 Ha       -8802.68771649 eV  <-- do not rely on this value for anything but (periodic) metals
  | Electronic free energy        :        -323.49282766 Ha       -8802.68771649 eV

  Derived energy quantities:
  | Kinetic energy                :         322.61598511 Ha        8778.82761667 eV
  | Electrostatic energy          :        -603.45910689 Ha      -16420.95778757 eV
  | Energy correction for multipole
  | error in Hartree potential    :           0.03985615 Ha           1.08454105 eV
  | Sum of eigenvalues per atom                           :        -378.87688252 eV
  | Total energy (T->0) per atom                          :        -677.12982435 eV  <-- do not rely on this value for anything but (periodic) metals
  | Electronic free energy per atom                       :        -677.12982435 eV

  atomic forces [eV/Ang]:
  -----------------------
  atom #    1
   Hellmann-Feynman              :  0.646979E+00  0.364318E+00  0.165468E+01
   Ionic forces                  :  0.000000E+00  0.000000E+00  0.000000E+00
   Multipole                     : -0.419500E-01  0.318725E+00 -0.260557E+00
   Pulay + GGA                   : -0.102582E+01 -0.608136E-01 -0.158122E+01
   Van der Waals                 :  0.223423E-02  0.997196E-03 -0.120406E-02
   ----------------------------------------------------------------
   Total forces(   1)            : -0.418561E+00  0.623227E+00 -0.188303E+00
  atom #    2
   Hellmann-Feynman              :  0.321298E+00  0.408336E-01 -0.242726E-01
   Ionic forces                  :  0.000000E+00  0.000000E+00  0.000000E+00
   Multipole                     :  0.163504E+00  0.698449E-02 -0.285205E-01
   Pulay + GGA                   : -0.157398E+00 -0.432260E-02  0.658689E-02
   Van der Waals                 :  0.687985E-02 -0.541369E-02 -0.553448E-02
   ----------------------------------------------------------------
   Total forces(   2)            :  0.334285E+00  0.380818E-01 -0.517407E-01
  atom #    3
   Hellmann-Feynman              :  0.777051E+01 -0.598227E+01 -0.485152E+01
   Ionic forces                  :  0.000000E+00  0.000000E+00  0.000000E+00
   Multipole                     : -0.992346E-01  0.133254E+00 -0.901206E+00
   Pulay + GGA                   : -0.699520E+01  0.513806E+01  0.620888E+01
   Van der Waals                 :  0.357193E-02 -0.521084E-02 -0.844808E-02
   ----------------------------------------------------------------
   Total forces(   3)            :  0.679645E+00 -0.716172E+00  0.447709E+00
  atom #    4
   Hellmann-Feynman              : -0.570046E+00  0.685563E+00 -0.173908E+00
   Ionic forces                  :  0.000000E+00  0.000000E+00  0.000000E+00
   Multipole                     : -0.111341E+00 -0.823373E-02 -0.475854E-01
   Pulay + GGA                   :  0.159498E+00  0.188335E+00 -0.627414E-01
   Van der Waals                 : -0.348976E-03  0.473804E-03 -0.272881E-02
   ----------------------------------------------------------------
   Total forces(   4)            : -0.522238E+00  0.866138E+00 -0.286964E+00
  atom #    5
   Hellmann-Feynman              : -0.230430E+00  0.114233E+00 -0.201608E+00
   Ionic forces                  :  0.000000E+00  0.000000E+00  0.000000E+00
   Multipole                     : -0.628939E-01  0.434160E-01 -0.573252E-01
   Pulay + GGA                   :  0.940164E-01 -0.219183E+00  0.226508E-01
   Van der Waals                 : -0.278895E-02 -0.777289E-02 -0.559662E-02
   ----------------------------------------------------------------
   Total forces(   5)            : -0.202096E+00 -0.693068E-01 -0.241879E+00
  atom #    6
   Hellmann-Feynman              :  0.377280E-02 -0.764022E+00  0.566319E+00
   Ionic forces                  :  0.000000E+00  0.000000E+00  0.000000E+00
   Multipole                     : -0.129057E+00  0.590610E+00  0.218827E+00
   Pulay + GGA                   :  0.287206E+00 -0.302906E+00 -0.461313E+00
   Van der Waals                 : -0.146766E-02  0.783906E-02  0.285733E-02
   ----------------------------------------------------------------
   Total forces(   6)            :  0.160454E+00 -0.468479E+00  0.326690E+00
  atom #    7
   Hellmann-Feynman              : -0.225798E+00 -0.545441E-01 -0.281783E-01
   Ionic forces                  :  0.000000E+00  0.000000E+00  0.000000E+00
   Multipole                     : -0.118048E+00  0.488578E-01  0.282306E-01
   Pulay + GGA                   :  0.110344E+00  0.234079E-02  0.149997E-01
   Van der Waals                 : -0.326598E-02  0.162665E-02  0.659932E-02
   ----------------------------------------------------------------
   Total forces(   7)            : -0.236767E+00 -0.171887E-02  0.216514E-01
  atom #    8
   Hellmann-Feynman              :  0.876816E-01  0.372715E-01  0.187278E+00
   Ionic forces                  :  0.000000E+00  0.000000E+00  0.000000E+00
   Multipole                     :  0.144340E-01  0.635286E-01  0.125182E+00
   Pulay + GGA                   : -0.499752E-01 -0.480139E-01 -0.112283E+00
   Van der Waals                 : -0.298192E-02  0.112757E-01  0.429491E-03
   ----------------------------------------------------------------
   Total forces(   8)            :  0.491584E-01  0.640619E-01  0.200606E+00
  atom #    9
   Hellmann-Feynman              :  0.133686E+00  0.516212E-01 -0.208458E+00
   Ionic forces                  :  0.000000E+00  0.000000E+00  0.000000E+00
   Multipole                     :  0.177654E-01  0.131655E+00 -0.571148E-02
   Pulay + GGA                   : -0.290169E-01 -0.581393E-01  0.912300E-01
   Van der Waals                 : -0.182071E-02  0.555075E-02  0.757101E-02
   ----------------------------------------------------------------
   Total forces(   9)            :  0.120614E+00  0.130688E+00 -0.115369E+00
  atom #   10
   Hellmann-Feynman              :  0.277583E+01  0.387769E+01  0.208651E+01
   Ionic forces                  :  0.000000E+00  0.000000E+00  0.000000E+00
   Multipole                     : -0.460366E-01 -0.347529E-01  0.228032E+00
   Pulay + GGA                   : -0.155280E+01 -0.262974E+01 -0.264154E+00
   Van der Waals                 :  0.346813E-02 -0.105790E-01 -0.137579E-02
   ----------------------------------------------------------------
   Total forces(  10)            :  0.118046E+01  0.120262E+01  0.204901E+01
  atom #   11
   Hellmann-Feynman              :  0.405602E+01 -0.237230E+01  0.141093E+02
   Ionic forces                  :  0.000000E+00  0.000000E+00  0.000000E+00
   Multipole                     :  0.269478E+00 -0.621670E+00  0.875192E+00
   Pulay + GGA                   : -0.378916E+01  0.373836E+01 -0.140007E+02
   Van der Waals                 : -0.232856E-02 -0.114684E-01  0.699540E-02
   ----------------------------------------------------------------
   Total forces(  11)            :  0.534012E+00  0.732924E+00  0.990764E+00
  atom #   12
   Hellmann-Feynman              : -0.841717E+01 -0.115374E+02  0.188519E+01
   Ionic forces                  :  0.000000E+00  0.000000E+00  0.000000E+00
   Multipole                     : -0.678256E+00 -0.164934E+01 -0.816917E-01
   Pulay + GGA                   :  0.791311E+01  0.116814E+02 -0.392097E+01
   Van der Waals                 :  0.630341E-03  0.636379E-02  0.432034E-02
   ----------------------------------------------------------------
   Total forces(  12)            : -0.118168E+01 -0.149905E+01 -0.211315E+01
  atom #   13
   Hellmann-Feynman              : -0.564270E+00 -0.775899E+00 -0.133376E+01
   Ionic forces                  :  0.000000E+00  0.000000E+00  0.000000E+00
   Multipole                     :  0.770320E-01  0.371209E-01 -0.118915E+00
   Pulay + GGA                   : -0.959728E-02 -0.169461E+00  0.410256E+00
   Van der Waals                 : -0.178172E-02  0.631787E-02 -0.388507E-02
   ----------------------------------------------------------------
   Total forces(  13)            : -0.498616E+00 -0.901921E+00 -0.104630E+01

  Timings for VdW correction (Tkatchenko-Scheffler 2009 or later):
  | CPU time:        0.091 s, Wall clock time:        0.091 s.
  Removing unitary transformations (pure translations, rotations) from forces on atoms.
  Atomic forces before filtering:
  | Net force on center of mass :  -0.132965E-02  0.108573E-02 -0.727901E-02 eV/A
  | Net torque on center of mass:   0.922606E-02  0.222620E-02  0.524799E-03 eV
  Atomic forces after filtering:
  | Net force on center of mass :  -0.446015E-15 -0.356812E-15  0.356812E-15 eV/A
  | Net torque on center of mass:   0.283225E-15  0.000000E+00 -0.755268E-15 eV

  Energy and forces in a compact form:
  | Total energy uncorrected      :         -0.880268771648694E+04 eV
  | Total energy corrected        :         -0.880268771648694E+04 eV  <-- do not rely on this value for anything but (periodic) metals
  | Electronic free energy        :         -0.880268771648694E+04 eV
  Total atomic forces (unitary forces cleaned) [eV/Ang]:
  |   1         -0.418450392343351E+00          0.623107553279090E+00         -0.187692149643786E+00
  |   2          0.334395160266498E+00          0.379138176722941E-01         -0.509972765014612E-01
  |   3          0.679927021050224E+00         -0.716616116063620E+00          0.448261164582296E+00
  |   4         -0.521973092603984E+00          0.865721045803382E+00         -0.286389491958543E+00
  |   5         -0.201735433248962E+00         -0.698171188479184E-01         -0.241580428544014E+00
  |   6          0.160532608634074E+00         -0.468396744285410E+00          0.326930275097884E+00
  |   7         -0.236689153666545E+00         -0.158402834469093E-02          0.217528023642500E-01
  |   8          0.491124799531228E-01          0.643809387664282E-01          0.200887689801786E+00
  |   9          0.120793922129990E+00          0.130629885317435E+00         -0.115304718220063E+00
  |  10          0.118042464437573E+01          0.120269758441577E+01          0.204988699498253E+01
  |  11          0.533823480557361E+00          0.733272206400609E+00          0.991747201327123E+00
  |  12         -0.118167409027886E+01         -0.149910644569753E+01         -0.211215059034535E+01
  |  13         -0.498487154825294E+00         -0.902202578415845E+00         -0.104535147294266E+01

  ------------------------------------ 
  Start decomposition of the XC Energy 
  ------------------------------------ 
  X and C from original XC functional choice 
  Hartree-Fock Energy :          0.000000000 Ha              0.000000000 eV
  X Energy            :        -41.043180531 Ha          -1116.841766541 eV
  C Energy            :         -1.603244584 Ha            -43.626504828 eV
  Total XC Energy     :        -42.646425116 Ha          -1160.468271369 eV
  ------------------------------------ 
  LDA X and C from self-consistent density 
  X Energy LDA        :        -37.265634474 Ha          -1014.049508310 eV
  C Energy LDA        :         -3.139441756 Ha            -85.428556750 eV
  ------------------------------------ 
  End decomposition of the XC Energy 
  ------------------------------------ 

------------------------------------------------------------

------------------------------------------------------------------------------
  Final output of selected total energy values:

  The following output summarizes some interesting total energy values
  at the end of a run (AFTER all relaxation, molecular dynamics, etc.).

  | Total energy of the DFT / Hartree-Fock s.c.f. calculation      :          -8802.687716487 eV
  | Final zero-broadening corrected energy (caution - metals only) :          -8802.687716487 eV
  | For reference only, the value of 1 Hartree used in FHI-aims is :             27.211384500 eV

  Before relying on these values, please be sure to understand exactly which
  total energy value is referred to by a given number. Different objects may
  all carry the same name 'total energy'. Definitions:

  Total energy of the DFT / Hartree-Fock s.c.f. calculation:
  | Note that this energy does not include ANY quantities calculated after the
  | s.c.f. cycle, in particular not ANY RPA, MP2, etc. many-body perturbation terms.

  Final zero-broadening corrected energy:
  | For metallic systems only, a broadening of the occupation numbers at the Fermi
  | level can be extrapolated back to zero broadening by an electron-gas inspired
  | formula. For all systems that are not real metals, this value can be
  | meaningless and should be avoided.

------------------------------------------------------------------------------
  Methods described in the following list of references were used in this FHI-aims run.
  If you publish the results, please make sure to cite these reference if they apply.
  FHI-aims is an academic code, and for our developers (often, Ph.D. students
  and postdocs), scientific credit in the community is essential.
  Thank you for helping us!

  For any use of FHI-aims, please cite:

    Volker Blum, Ralf Gehrke, Felix Hanke, Paula Havu, Ville Havu,
    Xinguo Ren, Karsten Reuter, and Matthias Scheffler
    'Ab initio molecular simulations with numeric atom-centered orbitals'
    Computer Physics Communications 180, 2175-2196 (2009)
    http://dx.doi.org/10.1016/j.cpc.2009.06.022


  The scalable eigensolver library ELPA was used in your run.
  ELPA is essential especially for large systems on hundreds or thousands of CPUs.
  For ELPA, please cite:

    Andreas Marek, Volker Blum, Rainer Johanni, Ville Havu, Bruno Lang,
    Thomas Auckenthaler, Alexander Heinecke, Hans-Joachim Bungartz, and Hermann Lederer,
    'The ELPA Library - Scalable Parallel Eigenvalue Solutions
    for Electronic Structure Theory and Computational Science'
    The Journal of Physics: Condensed Matter 26, 213201 (2014).
    http://dx.doi.org/10.1088/0953-8984/26/21/213201


  The ELSI infrastructure was used in your run to solve the Kohn-Sham electronic structure.
  Please check out http://elsi-interchange.org to learn more.
  If scalability is important for your project, please acknowledge ELSI by citing:

    V. W-z. Yu, F. Corsetti, A. Garcia, W. P. Huhn, M. Jacquelin, W. Jia,
    B. Lange, L. Lin, J. Lu, W. Mi, A. Seifitokaldani, A. Vazquez-Mayagoitia,
    C. Yang, H. Yang, and V. Blum
    'ELSI: A unified software interface for Kohn-Sham electronic structure solvers'
    Computer Physics Communications 222, 267-285 (2018).
    http://dx.doi.org/10.1016/j.cpc.2017.09.007


  For the real-space grid partitioning and parallelization used in this calculation, please cite:

    Ville Havu, Volker Blum, Paula Havu, and Matthias Scheffler,
    'Efficient O(N) integration for all-electron electronic structure calculation'
    'using numerically tabulated basis functions'
    Journal of Computational Physics 228, 8367-8379 (2009).
    http://dx.doi.org/10.1016/j.jcp.2009.08.008

  Of course, there are many other important community references, e.g., those cited in the
  above references. Our list is limited to references that describe implementations in the
  FHI-aims code. The reason is purely practical (length of this list) - please credit others as well.

------------------------------------------------------------
          Leaving FHI-aims.
          Date     :  20200805, Time     :  185525.449

          Computational steps:
          | Number of self-consistency cycles          :           16
          | Number of SCF (re)initializations          :            1

          Detailed time accounting                     :  max(cpu_time)    wall_clock(cpu1)
          | Total time                                 :       22.773 s          22.818 s
          | Preparation time                           :        0.149 s           0.150 s
          | Boundary condition initalization           :        0.000 s           0.001 s
          | Grid partitioning                          :        0.112 s           0.112 s
          | Preloading free-atom quantities on grid    :        0.002 s           0.002 s
          | Free-atom superposition energy             :        0.084 s           0.085 s
          | Total time for integrations                :        8.675 s           8.688 s
          | Total time for solution of K.-S. equations :        0.037 s           0.040 s
          | Total time for density & force components  :        7.179 s           7.189 s
          | Total time for mixing                      :        0.218 s           0.220 s
          | Total time for Hartree multipole update    :        0.144 s           0.146 s
          | Total time for Hartree multipole sum       :        5.771 s           5.773 s
          | Total time for total energy evaluation     :        0.003 s           0.003 s
          | Total time for vdW correction              :        0.091 s           0.091 s

          Partial memory accounting:
          | Residual value for overall tracked memory usage across tasks :           0.000 MB (should be 0.000 MB)
          | Peak values for overall tracked memory usage (after allocating hessian_basis_wave):
          |   Minimum:        1.622 MB (on task 1)
          |   Maximum:        1.622 MB (on task 1)
          |   Average:        1.622 MB
          | Largest tracked array allocation (hessian_basis_wave):
          |   Minimum:        0.794 MB (on task 1)
          |   Maximum:        0.794 MB (on task 1)
          |   Average:        0.794 MB
          Note:  These values currently only include a subset of arrays which are explicitly tracked.
          The "true" memory usage will be greater.

          Have a nice day.
------------------------------------------------------------
